       N       E                     dE             d eps       ncg     rms          rms(c)
DAV:   1     0.275348815939E+04    0.27535E+04   -0.15417E+05  8656   0.132E+03
DAV:   2    -0.457887266380E+02   -0.27993E+04   -0.25592E+04  9776   0.330E+02
DAV:   3    -0.401968394517E+03   -0.35618E+03   -0.34483E+03  9640   0.124E+02
DAV:   4    -0.412160490772E+03   -0.10192E+02   -0.10058E+02 10416   0.215E+01
DAV:   5    -0.412354139822E+03   -0.19365E+00   -0.19333E+00  9936   0.289E+00    0.135E+02
RMM:   6    -0.344044840129E+03    0.68309E+02   -0.42772E+02  8640   0.378E+01    0.677E+01
RMM:   7    -0.379100398702E+03   -0.35056E+02   -0.12529E+02  8640   0.201E+01    0.863E+01
RMM:   8    -0.394650696525E+03   -0.15550E+02   -0.70696E+01  8640   0.149E+01    0.107E+02
RMM:   9    -0.310465707421E+03    0.84185E+02   -0.28257E+01  8640   0.103E+01    0.433E+01
RMM:  10    -0.321051795349E+03   -0.10586E+02   -0.49618E+01  8640   0.120E+01    0.505E+01
RMM:  11    -0.307938032272E+03    0.13114E+02   -0.84647E+00  8640   0.576E+00    0.257E+01
RMM:  12    -0.317929875501E+03   -0.99918E+01   -0.33666E+00  8640   0.350E+00    0.338E+01
RMM:  13    -0.312310886100E+03    0.56190E+01   -0.15509E+00  8640   0.260E+00    0.194E+01
RMM:  14    -0.314723399188E+03   -0.24125E+01   -0.98586E-01  8640   0.208E+00    0.160E+01
RMM:  15    -0.319641266087E+03   -0.49179E+01   -0.11643E+00  8640   0.210E+00    0.143E+01
RMM:  16    -0.329814425219E+03   -0.10173E+02   -0.41719E+00  8640   0.388E+00    0.170E+01
RMM:  17    -0.341388621710E+03   -0.11574E+02   -0.13000E+01  8640   0.587E+00    0.104E+01
RMM:  18    -0.345261573296E+03   -0.38730E+01   -0.37189E+00  8642   0.326E+00    0.836E+00
RMM:  19    -0.346613519724E+03   -0.13519E+01   -0.11206E+00  8640   0.183E+00    0.785E+00
RMM:  20    -0.348661829111E+03   -0.20483E+01   -0.28937E+00  8640   0.254E+00    0.666E+00
RMM:  21    -0.348946478827E+03   -0.28465E+00   -0.33883E-01  8640   0.106E+00    0.612E+00
RMM:  22    -0.348951505198E+03   -0.50264E-02   -0.13132E-01  8640   0.693E-01    0.516E+00
RMM:  23    -0.349216538919E+03   -0.26503E+00   -0.16580E-01  8640   0.757E-01    0.478E+00
RMM:  24    -0.349289563249E+03   -0.73024E-01   -0.11964E-01  8640   0.555E-01    0.454E+00
RMM:  25    -0.349293669651E+03   -0.41064E-02   -0.71962E-02  8640   0.489E-01    0.282E+00
RMM:  26    -0.349390896980E+03   -0.97227E-01   -0.45518E-02  8640   0.381E-01    0.214E+00
RMM:  27    -0.349398172155E+03   -0.72752E-02   -0.17797E-02  8640   0.237E-01    0.192E+00
RMM:  28    -0.349377540894E+03    0.20631E-01   -0.93741E-03  8630   0.167E-01    0.154E+00
RMM:  29    -0.349386733899E+03   -0.91930E-02   -0.81139E-03  8640   0.166E-01    0.118E+00
RMM:  30    -0.349417922691E+03   -0.31189E-01   -0.48955E-03  8634   0.122E-01    0.109E+00
RMM:  31    -0.349465821409E+03   -0.47899E-01   -0.55694E-03  8634   0.129E-01    0.728E-01
RMM:  32    -0.349497955490E+03   -0.32134E-01   -0.23707E-03  8324   0.820E-02    0.607E-01
RMM:  33    -0.349518490587E+03   -0.20535E-01   -0.13738E-03  7880   0.628E-02    0.503E-01
RMM:  34    -0.349557736746E+03   -0.39246E-01   -0.27193E-03  8545   0.925E-02    0.380E-01
RMM:  35    -0.349582119437E+03   -0.24383E-01   -0.14335E-03  7976   0.639E-02    0.268E-01
RMM:  36    -0.349614935958E+03   -0.32817E-01   -0.14703E-03  7932   0.643E-02    0.173E-01
RMM:  37    -0.349641382727E+03   -0.26447E-01   -0.13371E-03  7831   0.604E-02    0.223E-01
RMM:  38    -0.349657039729E+03   -0.15657E-01   -0.74943E-04  7108   0.457E-02    0.181E-01
RMM:  39    -0.349661842923E+03   -0.48032E-02   -0.21492E-04  5680   0.259E-02    0.149E-01
RMM:  40    -0.349662448137E+03   -0.60521E-03   -0.64641E-05  4998   0.157E-02    0.130E-01
RMM:  41    -0.349663311744E+03   -0.86361E-03   -0.41469E-05  4855   0.122E-02    0.101E-01
RMM:  42    -0.349665515881E+03   -0.22041E-02   -0.67515E-05  5011   0.146E-02    0.937E-02
RMM:  43    -0.349665585823E+03   -0.69943E-04   -0.23469E-05  4719   0.938E-03
   1 F= -.35856834E+03 E0= -.35854640E+03  d E =-.358568E+03  mag=     2.1802
       N       E                     dE             d eps       ncg     rms          rms(c)
DAV:   1    -0.349882133270E+03   -0.21662E+00   -0.95436E+00  8896   0.580E+00    0.117E+00
RMM:   2    -0.350480943828E+03   -0.59881E+00   -0.30000E-01  8640   0.101E+00    0.767E+00
RMM:   3    -0.349923092908E+03    0.55785E+00   -0.38857E-02  8640   0.351E-01    0.169E+00
RMM:   4    -0.349911074938E+03    0.12018E-01   -0.14756E-02  8640   0.219E-01    0.158E+00
RMM:   5    -0.349899752063E+03    0.11323E-01   -0.12762E-02  8639   0.193E-01    0.113E+00
RMM:   6    -0.349893321190E+03    0.64309E-02   -0.90519E-03  8619   0.163E-01    0.906E-01
RMM:   7    -0.349882806834E+03    0.10514E-01   -0.58220E-03  8616   0.124E-01    0.416E-01
RMM:   8    -0.349880909436E+03    0.18974E-02   -0.17446E-03  8059   0.721E-02    0.397E-01
RMM:   9    -0.349880356435E+03    0.55300E-03   -0.81900E-04  7507   0.491E-02    0.250E-01
RMM:  10    -0.349881649491E+03   -0.12931E-02   -0.29531E-04  6070   0.313E-02    0.148E-01
RMM:  11    -0.349883898636E+03   -0.22491E-02   -0.18844E-04  5506   0.248E-02    0.120E-01
RMM:  12    -0.349887791810E+03   -0.38932E-02   -0.23265E-04  5619   0.252E-02    0.660E-02
RMM:  13    -0.349889502336E+03   -0.17105E-02   -0.81786E-05  5056   0.152E-02    0.640E-02
RMM:  14    -0.349891790495E+03   -0.22882E-02   -0.99434E-05  5101   0.142E-02    0.425E-02
RMM:  15    -0.349893133683E+03   -0.13432E-02   -0.53786E-05  4264   0.933E-03    0.432E-02
RMM:  16    -0.349893983986E+03   -0.85030E-03   -0.40938E-05  4257   0.864E-03    0.389E-02
RMM:  17    -0.349895263900E+03   -0.12799E-02   -0.10351E-04  4868   0.114E-02    0.305E-02
RMM:  18    -0.349895601914E+03   -0.33801E-03   -0.53409E-05  4167   0.837E-03    0.380E-02
RMM:  19    -0.349895676859E+03   -0.74945E-04   -0.21137E-05  3671   0.673E-03
   2 F= -.35879766E+03 E0= -.35877688E+03  d E =-.229327E+00  mag=     2.3210
       N       E                     dE             d eps       ncg     rms          rms(c)
DAV:   1    -0.350060435187E+03   -0.16483E+00   -0.12814E+01  8760   0.656E+00    0.135E+00
RMM:   2    -0.350755578160E+03   -0.69514E+00   -0.38664E-01  8640   0.116E+00    0.816E+00
RMM:   3    -0.350116871067E+03    0.63871E+00   -0.41169E-02  8640   0.364E-01    0.214E+00
RMM:   4    -0.350104657317E+03    0.12214E-01   -0.17940E-02  8640   0.239E-01    0.200E+00
RMM:   5    -0.350089121510E+03    0.15536E-01   -0.16773E-02  8640   0.226E-01    0.152E+00
RMM:   6    -0.350081478692E+03    0.76428E-02   -0.13924E-02  8638   0.203E-01    0.131E+00
RMM:   7    -0.350070219051E+03    0.11260E-01   -0.78022E-03  8591   0.145E-01    0.469E-01
RMM:   8    -0.350070751563E+03   -0.53251E-03   -0.20759E-03  8220   0.798E-02    0.473E-01
RMM:   9    -0.350070627739E+03    0.12382E-03   -0.98798E-04  7749   0.546E-02    0.321E-01
RMM:  10    -0.350070747955E+03   -0.12022E-03   -0.52426E-04  6888   0.403E-02    0.251E-01
RMM:  11    -0.350070770904E+03   -0.22949E-04   -0.22633E-04  5733   0.279E-02
   3 F= -.35897187E+03 E0= -.35895091E+03  d E =-.403531E+00  mag=     2.2984
       N       E                     dE             d eps       ncg     rms          rms(c)
DAV:   1    -0.350098327486E+03   -0.27580E-01   -0.51329E+01  8640   0.131E+01    0.342E+00
RMM:   2    -0.356350880349E+03   -0.62526E+01   -0.21310E+00  8640   0.264E+00    0.293E+01
RMM:   3    -0.350879745833E+03    0.54711E+01   -0.27514E-01  8640   0.959E-01    0.832E+00
RMM:   4    -0.350547009742E+03    0.33274E+00   -0.17177E-01  8640   0.727E-01    0.798E+00
RMM:   5    -0.350271316533E+03    0.27569E+00   -0.10015E-01  8641   0.563E-01    0.456E+00
RMM:   6    -0.350218716581E+03    0.52600E-01   -0.54507E-02  8640   0.404E-01    0.433E+00
RMM:   7    -0.350149141745E+03    0.69575E-01   -0.55237E-02  8640   0.405E-01    0.309E+00
RMM:   8    -0.350116105075E+03    0.33037E-01   -0.36301E-02  8640   0.325E-01    0.243E+00
RMM:   9    -0.350090574093E+03    0.25531E-01   -0.20337E-02  8640   0.251E-01    0.172E+00
RMM:  10    -0.350096970962E+03   -0.63969E-02   -0.98668E-03  8637   0.176E-01    0.139E+00
RMM:  11    -0.350098626522E+03   -0.16556E-02   -0.39539E-03  8512   0.106E-01    0.110E+00
RMM:  12    -0.350103696427E+03   -0.50699E-02   -0.18669E-03  8063   0.708E-02    0.985E-01
RMM:  13    -0.350105840850E+03   -0.21444E-02   -0.61498E-04  6916   0.414E-02    0.859E-01
RMM:  14    -0.350110485125E+03   -0.46443E-02   -0.10310E-03  7523   0.514E-02    0.735E-01
RMM:  15    -0.350109965316E+03    0.51981E-03   -0.12303E-03  7789   0.540E-02    0.604E-01
RMM:  16    -0.350100373724E+03    0.95916E-02   -0.12261E-03  7702   0.545E-02    0.444E-01
RMM:  17    -0.350094189276E+03    0.61844E-02   -0.44197E-04  6197   0.349E-02    0.353E-01
RMM:  18    -0.350089470904E+03    0.47184E-02   -0.43272E-04  6325   0.347E-02    0.262E-01
RMM:  19    -0.350088726026E+03    0.74488E-03   -0.20251E-04  5545   0.246E-02    0.220E-01
RMM:  20    -0.350094302831E+03   -0.55768E-02   -0.53165E-04  6675   0.392E-02    0.130E-01
RMM:  21    -0.350104678561E+03   -0.10376E-01   -0.57497E-04  6602   0.398E-02    0.860E-02
RMM:  22    -0.350110807237E+03   -0.61287E-02   -0.14891E-04  5365   0.200E-02    0.931E-02
RMM:  23    -0.350120107819E+03   -0.93006E-02   -0.20705E-04  5526   0.201E-02    0.430E-02
RMM:  24    -0.350124055997E+03   -0.39482E-02   -0.11890E-04  5144   0.141E-02    0.523E-02
RMM:  25    -0.350125078807E+03   -0.10228E-02   -0.52666E-05  4541   0.103E-02    0.278E-02
RMM:  26    -0.350125713421E+03   -0.63461E-03   -0.76416E-05  4850   0.105E-02    0.190E-02
RMM:  27    -0.350125692903E+03    0.20519E-04   -0.30068E-05  3458   0.676E-03
   4 F= -.35902493E+03 E0= -.35900071E+03  d E =-.456598E+00  mag=     1.8130
       N       E                     dE             d eps       ncg     rms          rms(c)
DAV:   1    -0.350150051222E+03   -0.24338E-01   -0.69357E+00  8768   0.479E+00    0.135E+00
RMM:   2    -0.350966353393E+03   -0.81630E+00   -0.24775E-01  8640   0.907E-01    0.933E+00
RMM:   3    -0.350176329041E+03    0.79002E+00   -0.53956E-02  8640   0.411E-01    0.146E+00
RMM:   4    -0.350178107876E+03   -0.17788E-02   -0.15129E-02  8640   0.232E-01    0.200E+00
RMM:   5    -0.350158642786E+03    0.19465E-01   -0.11996E-02  8639   0.191E-01    0.155E+00
RMM:   6    -0.350151416992E+03    0.72258E-02   -0.99222E-03  8635   0.174E-01    0.135E+00
RMM:   7    -0.350136758674E+03    0.14658E-01   -0.81182E-03  8567   0.147E-01    0.808E-01
RMM:   8    -0.350136453488E+03    0.30519E-03   -0.30687E-03  8318   0.975E-02    0.501E-01
RMM:   9    -0.350135273240E+03    0.11802E-02   -0.13929E-03  8039   0.662E-02    0.257E-01
RMM:  10    -0.350136333215E+03   -0.10600E-02   -0.46586E-04  6861   0.405E-02    0.221E-01
RMM:  11    -0.350136622677E+03   -0.28946E-03   -0.28689E-04  6076   0.321E-02    0.146E-01
RMM:  12    -0.350137193527E+03   -0.57085E-03   -0.12164E-04  4938   0.221E-02    0.119E-01
RMM:  13    -0.350137823128E+03   -0.62960E-03   -0.82432E-05  4829   0.181E-02    0.815E-02
RMM:  14    -0.350139472671E+03   -0.16495E-02   -0.80295E-05  4906   0.154E-02    0.804E-02
RMM:  15    -0.350140548836E+03   -0.10762E-02   -0.50656E-05  4634   0.122E-02    0.521E-02
RMM:  16    -0.350143222357E+03   -0.26735E-02   -0.71374E-05  4750   0.116E-02    0.396E-02
RMM:  17    -0.350146474537E+03   -0.32522E-02   -0.89685E-05  4537   0.109E-02    0.344E-02
RMM:  18    -0.350149854254E+03   -0.33797E-02   -0.13466E-04  5011   0.125E-02    0.370E-02
RMM:  19    -0.350150763685E+03   -0.90943E-03   -0.43575E-05  4015   0.819E-03    0.314E-02
RMM:  20    -0.350151731158E+03   -0.96747E-03   -0.49390E-05  4243   0.833E-03    0.147E-02
RMM:  21    -0.350152213626E+03   -0.48247E-03   -0.34115E-05  3388   0.672E-03    0.213E-02
RMM:  22    -0.350152347981E+03   -0.13436E-03   -0.28130E-05  3069   0.600E-03    0.829E-03
RMM:  23    -0.350152277789E+03    0.70193E-04   -0.18388E-05  2815   0.524E-03
   5 F= -.35905222E+03 E0= -.35902926E+03  d E =-.483880E+00  mag=     2.0689
       N       E                     dE             d eps       ncg     rms          rms(c)
DAV:   1    -0.350174723306E+03   -0.22375E-01   -0.21472E+00  8792   0.310E+00    0.445E-01
RMM:   2    -0.350205334777E+03   -0.30611E-01   -0.55573E-02  8576   0.465E-01    0.184E+00
RMM:   3    -0.350183791979E+03    0.21543E-01   -0.38784E-03  8407   0.109E-01    0.887E-01
RMM:   4    -0.350179046706E+03    0.47453E-02   -0.16970E-03  8026   0.715E-02    0.457E-01
RMM:   5    -0.350178689134E+03    0.35757E-03   -0.11307E-03  8005   0.608E-02    0.394E-01
RMM:   6    -0.350178056666E+03    0.63247E-03   -0.73483E-04  7621   0.453E-02    0.333E-01
RMM:   7    -0.350177373531E+03    0.68314E-03   -0.61997E-04  7183   0.427E-02    0.179E-01
RMM:   8    -0.350177290832E+03    0.82699E-04   -0.25795E-04  5922   0.286E-02
   6 F= -.35907861E+03 E0= -.35905565E+03  d E =-.263955E-01  mag=     2.0866
       N       E                     dE             d eps       ncg     rms          rms(c)
DAV:   1    -0.350183431196E+03   -0.60577E-02   -0.13134E+01  8720   0.766E+00    0.107E+00
RMM:   2    -0.350313166218E+03   -0.12974E+00   -0.33292E-01  8638   0.114E+00    0.373E+00
RMM:   3    -0.350230433067E+03    0.82733E-01   -0.19254E-02  8639   0.244E-01    0.198E+00
RMM:   4    -0.350212844536E+03    0.17589E-01   -0.82879E-03  8545   0.155E-01    0.127E+00
RMM:   5    -0.350205636010E+03    0.72085E-02   -0.66118E-03  8631   0.148E-01    0.854E-01
RMM:   6    -0.350204384784E+03    0.12512E-02   -0.41238E-03  8554   0.106E-01    0.829E-01
RMM:   7    -0.350199390643E+03    0.49941E-02   -0.33956E-03  8435   0.996E-02    0.432E-01
RMM:   8    -0.350198625236E+03    0.76541E-03   -0.15076E-03  7959   0.668E-02    0.405E-01
RMM:   9    -0.350197585303E+03    0.10399E-02   -0.60350E-04  7083   0.421E-02    0.181E-01
RMM:  10    -0.350197709093E+03   -0.12379E-03   -0.15346E-04  5285   0.226E-02    0.152E-01
RMM:  11    -0.350197901943E+03   -0.19285E-03   -0.10223E-04  4809   0.196E-02    0.885E-02
RMM:  12    -0.350198491540E+03   -0.58960E-03   -0.62031E-05  4741   0.146E-02    0.687E-02
RMM:  13    -0.350198795064E+03   -0.30352E-03   -0.23669E-05  4189   0.938E-03    0.469E-02
RMM:  14    -0.350199284313E+03   -0.48925E-03   -0.15590E-05  3756   0.700E-03    0.414E-02
RMM:  15    -0.350199814743E+03   -0.53043E-03   -0.11947E-05  3109   0.600E-03    0.361E-02
RMM:  16    -0.350200760569E+03   -0.94583E-03   -0.29135E-05  4025   0.770E-03    0.285E-02
RMM:  17    -0.350201691824E+03   -0.93126E-03   -0.40566E-05  4370   0.832E-03    0.397E-02
RMM:  18    -0.350202540968E+03   -0.84914E-03   -0.49909E-05  4355   0.874E-03    0.204E-02
RMM:  19    -0.350203211489E+03   -0.67052E-03   -0.43998E-05  3428   0.706E-03    0.160E-02
RMM:  20    -0.350203370614E+03   -0.15913E-03   -0.11090E-05  2399   0.485E-03    0.151E-02
RMM:  21    -0.350203655018E+03   -0.28440E-03   -0.18612E-05  2714   0.539E-03    0.565E-03
RMM:  22    -0.350203789034E+03   -0.13402E-03   -0.15174E-05  2615   0.501E-03    0.373E-03
RMM:  23    -0.350203794170E+03   -0.51363E-05   -0.34028E-06  1589   0.387E-03
   7 F= -.35910851E+03 E0= -.35908600E+03  d E =-.562924E-01  mag=     2.2561
       N       E                     dE             d eps       ncg     rms          rms(c)
DAV:   1    -0.350211527944E+03   -0.77389E-02   -0.13781E+00  8896   0.242E+00    0.442E-01
RMM:   2    -0.350216940681E+03   -0.54127E-02   -0.32925E-02  8523   0.345E-01    0.731E-01
RMM:   3    -0.350214607335E+03    0.23333E-02   -0.10831E-03  7525   0.608E-02    0.391E-01
RMM:   4    -0.350223002867E+03   -0.83955E-02   -0.11143E-03  8031   0.558E-02    0.110E+00
RMM:   5    -0.350214892175E+03    0.81107E-02   -0.16960E-03  8205   0.748E-02    0.414E-01
RMM:   6    -0.350213833691E+03    0.10585E-02   -0.10460E-03  7929   0.561E-02    0.245E-01
RMM:   7    -0.350213482383E+03    0.35131E-03   -0.38894E-04  6254   0.337E-02    0.162E-01
RMM:   8    -0.350213271409E+03    0.21097E-03   -0.12299E-04  4858   0.211E-02    0.705E-02
RMM:   9    -0.350213258257E+03    0.13152E-04   -0.30138E-05  4230   0.110E-02
   8 F= -.35911659E+03 E0= -.35909408E+03  d E =-.808247E-02  mag=     2.2392
       N       E                     dE             d eps       ncg     rms          rms(c)
DAV:   1    -0.350215383844E+03   -0.21124E-02   -0.21982E+00  8848   0.306E+00    0.543E-01
RMM:   2    -0.350223294830E+03   -0.79110E-02   -0.52592E-02  8533   0.436E-01    0.862E-01
RMM:   3    -0.350219709908E+03    0.35849E-02   -0.18213E-03  7846   0.779E-02    0.408E-01
RMM:   4    -0.350239783607E+03   -0.20074E-01   -0.22842E-03  8320   0.801E-02    0.162E+00
RMM:   5    -0.350220774678E+03    0.19009E-01   -0.21390E-03  8349   0.847E-02    0.522E-01
RMM:   6    -0.350220785431E+03   -0.10753E-04   -0.17183E-03  8201   0.721E-02    0.545E-01
RMM:   7    -0.350218338846E+03    0.24466E-02   -0.86398E-04  7684   0.507E-02    0.149E-01
RMM:   8    -0.350218173717E+03    0.16513E-03   -0.18261E-04  5311   0.254E-02    0.114E-01
RMM:   9    -0.350218159188E+03    0.14529E-04   -0.66247E-05  4487   0.156E-02
   9 F= -.35911974E+03 E0= -.35909719E+03  d E =-.112324E-01  mag=     2.2076
       N       E                     dE             d eps       ncg     rms          rms(c)
DAV:   1    -0.350221295518E+03   -0.31218E-02   -0.99950E-01  8864   0.207E+00    0.323E-01
RMM:   2    -0.350233005704E+03   -0.11710E-01   -0.22319E-02  8554   0.299E-01    0.109E+00
RMM:   3    -0.350224882216E+03    0.81235E-02   -0.15051E-03  8190   0.699E-02    0.463E-01
RMM:   4    -0.350223858891E+03    0.10233E-02   -0.77894E-04  7257   0.497E-02    0.268E-01
RMM:   5    -0.350223895034E+03   -0.36143E-04   -0.77666E-04  7646   0.500E-02
  10 F= -.35912506E+03 E0= -.35910225E+03  d E =-.531769E-02  mag=     2.1951
       N       E                     dE             d eps       ncg     rms          rms(c)
DAV:   1    -0.350225096748E+03   -0.12379E-02   -0.78879E-02  8936   0.607E-01    0.332E-01
RMM:   2    -0.350249973421E+03   -0.24877E-01   -0.11972E-02  8640   0.203E-01    0.163E+00
RMM:   3    -0.350226055998E+03    0.23917E-01   -0.55682E-03  8606   0.127E-01    0.353E-01
RMM:   4    -0.350225136876E+03    0.91912E-03   -0.29088E-04  6195   0.337E-02    0.257E-01
RMM:   5    -0.350224846134E+03    0.29074E-03   -0.22061E-04  5619   0.277E-02    0.183E-01
RMM:   6    -0.350224691805E+03    0.15433E-03   -0.15362E-04  4908   0.241E-02    0.684E-02
RMM:   7    -0.350224826993E+03   -0.13519E-03   -0.90111E-05  4590   0.180E-02    0.105E-01
RMM:   8    -0.350224796499E+03    0.30494E-04   -0.53077E-05  4430   0.143E-02
  11 F= -.35912584E+03 E0= -.35910318E+03  d E =-.610123E-02  mag=     2.1808
       N       E                     dE             d eps       ncg     rms          rms(c)
DAV:   1    -0.350225325702E+03   -0.49871E-03   -0.31468E-01  8992   0.116E+00    0.186E-01
RMM:   2    -0.350228679450E+03   -0.33537E-02   -0.71987E-03  8483   0.171E-01    0.584E-01
RMM:   3    -0.350226685847E+03    0.19936E-02   -0.51157E-04  6854   0.406E-02    0.316E-01
RMM:   4    -0.350226035150E+03    0.65070E-03   -0.22522E-04  5714   0.282E-02    0.138E-01
RMM:   5    -0.350226074259E+03   -0.39109E-04   -0.22523E-04  5473   0.291E-02
  12 F= -.35912688E+03 E0= -.35910418E+03  d E =-.714265E-02  mag=     2.1747
       N       E                     dE             d eps       ncg     rms          rms(c)
DAV:   1    -0.350223550249E+03    0.24849E-02   -0.12566E+00  8896   0.232E+00    0.400E-01
RMM:   2    -0.350233110481E+03   -0.95602E-02   -0.28909E-02  8633   0.345E-01    0.983E-01
RMM:   3    -0.350229023915E+03    0.40866E-02   -0.22626E-03  8397   0.854E-02    0.666E-01
RMM:   4    -0.350226943533E+03    0.20804E-02   -0.99321E-04  7609   0.549E-02    0.419E-01
RMM:   5    -0.350226073307E+03    0.87023E-03   -0.11990E-03  8050   0.622E-02    0.261E-01
RMM:   6    -0.350226398072E+03   -0.32476E-03   -0.86701E-04  7512   0.491E-02    0.327E-01
RMM:   7    -0.350225676488E+03    0.72158E-03   -0.49865E-04  7019   0.386E-02    0.168E-01
RMM:   8    -0.350225508314E+03    0.16817E-03   -0.15866E-04  5178   0.231E-02    0.881E-02
RMM:   9    -0.350225421581E+03    0.86733E-04   -0.49437E-05  4383   0.144E-02
  13 F= -.35912576E+03 E0= -.35910302E+03  d E =-.601473E-02  mag=     2.1662
       N       E                     dE             d eps       ncg     rms          rms(c)
DAV:   1    -0.350225048681E+03    0.45963E-03   -0.78334E-01  8904   0.183E+00    0.287E-01
RMM:   2    -0.350234290641E+03   -0.92420E-02   -0.17425E-02  8568   0.266E-01    0.982E-01
RMM:   3    -0.350227548710E+03    0.67419E-02   -0.11875E-03  8041   0.627E-02    0.419E-01
RMM:   4    -0.350226530191E+03    0.10185E-02   -0.57266E-04  6913   0.436E-02    0.201E-01
RMM:   5    -0.350226651998E+03   -0.12181E-03   -0.60647E-04  7418   0.447E-02    0.213E-01
RMM:   6    -0.350226816711E+03   -0.16471E-03   -0.39446E-04  6433   0.345E-02    0.256E-01
RMM:   7    -0.350226425787E+03    0.39092E-03   -0.25208E-04  5837   0.288E-02    0.991E-02
RMM:   8    -0.350226381604E+03    0.44182E-04   -0.85484E-05  4590   0.175E-02
  14 F= -.35912709E+03 E0= -.35910439E+03  d E =-.734984E-02  mag=     2.1621
       N       E                     dE             d eps       ncg     rms          rms(c)
DAV:   1    -0.350227830041E+03   -0.14043E-02   -0.34413E-01  8984   0.117E+00    0.168E-01
RMM:   2    -0.350230144667E+03   -0.23146E-02   -0.71735E-03  8478   0.160E-01    0.440E-01
RMM:   3    -0.350229095059E+03    0.10496E-02   -0.40500E-04  6380   0.366E-02    0.297E-01
RMM:   4    -0.350228642283E+03    0.45278E-03   -0.18489E-04  5448   0.258E-02    0.143E-01
RMM:   5    -0.350228613654E+03    0.28629E-04   -0.18522E-04  5324   0.262E-02
  15 F= -.35912867E+03 E0= -.35910596E+03  d E =-.157317E-02  mag=     2.1629
       N       E                     dE             d eps       ncg     rms          rms(c)
DAV:   1    -0.350227156945E+03    0.14853E-02   -0.30897E+00  8968   0.350E+00    0.534E-01
RMM:   2    -0.350239313260E+03   -0.12156E-01   -0.63630E-02  8578   0.470E-01    0.897E-01
RMM:   3    -0.350238242459E+03    0.10708E-02   -0.38373E-03  8461   0.109E-01    0.918E-01
RMM:   4    -0.350238806771E+03   -0.56431E-03   -0.17623E-03  8087   0.733E-02    0.847E-01
RMM:   5    -0.350231736822E+03    0.70699E-02   -0.19994E-03  8215   0.805E-02    0.293E-01
RMM:   6    -0.350231556547E+03    0.18028E-03   -0.12891E-03  8011   0.624E-02    0.328E-01
RMM:   7    -0.350230870244E+03    0.68630E-03   -0.71565E-04  7266   0.451E-02    0.174E-01
RMM:   8    -0.350230740669E+03    0.12958E-03   -0.21661E-04  5630   0.267E-02    0.117E-01
RMM:   9    -0.350230664882E+03    0.75787E-04   -0.78991E-05  4496   0.171E-02
  16 F= -.35912874E+03 E0= -.35910624E+03  d E =-.164319E-02  mag=     2.1717
       N       E                     dE             d eps       ncg     rms          rms(c)
DAV:   1    -0.350232303094E+03   -0.15624E-02   -0.63667E-01  8856   0.161E+00    0.196E-01
RMM:   2    -0.350235005621E+03   -0.27025E-02   -0.14147E-02  8446   0.232E-01    0.453E-01
RMM:   3    -0.350234338151E+03    0.66747E-03   -0.57096E-04  6880   0.437E-02    0.336E-01
RMM:   4    -0.350233717265E+03    0.62089E-03   -0.28732E-04  6060   0.319E-02    0.183E-01
RMM:   5    -0.350233789411E+03   -0.72146E-04   -0.33721E-04  6363   0.337E-02
  17 F= -.35913033E+03 E0= -.35910774E+03  d E =-.159215E-02  mag=     2.1724
