vasp.5.4.1 08Jul2015 (build Apr 24 2014 00:09:29) complex standard with constrain (TS)    
 executed on IBM of Center for Computational Chemistry date 2017.10.23  07:29:13
 running on   24 total cores
 distrk:  each k-point on   24 cores,    1 groups
 distr:  one band on NCORES_PER_BAND=   6 cores,    4 groups


--------------------------------------------------------------------------------------------------------


 INCAR:
 POTCAR:    PAW_PBE O 08Apr2002                   
 POTCAR:    PAW_PBE Ru 04Feb2005                  
 POTCAR:    PAW_PBE O 08Apr2002                   
   VRHFIN =O: s2p4                                                              
   LEXCH  = PE                                                                  
   EATOM  =   432.3788 eV,   31.7789 Ry                                         
                                                                                
   TITEL  = PAW_PBE O 08Apr2002                                                 
   LULTRA =        F    use ultrasoft PP ?                                      
   IUNSCR =        1    unscreen: 0-lin 1-nonlin 2-no                           
   RPACOR =    1.200    partial core radius                                     
   POMASS =   16.000; ZVAL   =    6.000    mass and valenz                      
   RCORE  =    1.520    outmost cutoff radius                                   
   RWIGS  =    1.550; RWIGS  =    0.820    wigner-seitz radius (au A)           
   ENMAX  =  400.000; ENMIN  =  300.000 eV                                      
   ICORE  =        2    local potential                                         
   LCOR   =        T    correct aug charges                                     
   LPAW   =        T    paw PP                                                  
   EAUG   =  605.392                                                            
   DEXC   =    0.000                                                            
   RMAX   =    1.553    core radius for proj-oper                               
   RAUG   =    1.300    factor for augmentation sphere                          
   RDEP   =    1.550    radius for radial grids                                 
   RDEPT  =    1.329    core radius for aug-charge                              
                                                                                
   Atomic configuration                                                         
    4 entries                                                                   
     n  l   j            E        occ.                                          
     1  0  0.50      -514.6923   2.0000                                         
     2  0  0.50       -23.9615   2.0000                                         
     2  1  0.50        -9.0305   4.0000                                         
     3  2  1.50        -9.5241   0.0000                                         
   Description                                                                  
     l       E           TYP  RCUT    TYP  RCUT                                 
     0    -23.9615318     23  1.200                                             
     0     -9.5240782     23  1.200                                             
     1     -9.0304911     23  1.520                                             
     1      8.1634956     23  1.520                                             
     2     -9.5240782      7  1.500                                             
  local pseudopotential read in
  partial core-charges read in
  partial kinetic energy density read in
  kinetic energy density of atom read in
  atomic valenz-charges read in
  non local Contribution for L=           0  read in
    real space projection operators read in
  non local Contribution for L=           0  read in
    real space projection operators read in
  non local Contribution for L=           1  read in
    real space projection operators read in
  non local Contribution for L=           1  read in
    real space projection operators read in
    PAW grid and wavefunctions read in
 
   number of l-projection  operators is LMAX  =           4
   number of lm-projection operators is LMMAX =           8
 
 POTCAR:    PAW_PBE Ru 04Feb2005                  
   VRHFIN =Ru: s1 d7                                                            
   LEXCH  = PE                                                                  
   EATOM  =   454.8837 eV,   33.4330 Ry                                         
                                                                                
   TITEL  = PAW_PBE Ru 04Feb2005                                                
   LULTRA =        F    use ultrasoft PP ?                                      
   IUNSCR =        1    unscreen: 0-lin 1-nonlin 2-no                           
   RPACOR =    2.170    partial core radius                                     
   POMASS =  101.070; ZVAL   =    8.000    mass and valenz                      
   RCORE  =    2.700    outmost cutoff radius                                   
   RWIGS  =    2.650; RWIGS  =    1.402    wigner-seitz radius (au A)           
   ENMAX  =  213.271; ENMIN  =  159.953 eV                                      
   ICORE  =        3    local potential                                         
   LCOR   =        T    correct aug charges                                     
   LPAW   =        T    paw PP                                                  
   EAUG   =  333.494                                                            
   DEXC   =    0.000                                                            
   RMAX   =    2.758    core radius for proj-oper                               
   RAUG   =    1.300    factor for augmentation sphere                          
   RDEP   =    2.865    radius for radial grids                                 
   RDEPT  =    2.250    core radius for aug-charge                              
                                                                                
   Atomic configuration                                                         
   12 entries                                                                   
     n  l   j            E        occ.                                          
     1  0  0.50    -21933.2693   2.0000                                         
     2  0  0.50     -3153.4097   2.0000                                         
     2  1  1.50     -2823.9548   6.0000                                         
     3  0  0.50      -555.3323   2.0000                                         
     3  1  1.50      -447.1024   6.0000                                         
     3  2  2.50      -273.0570  10.0000                                         
     4  0  0.50       -76.3589   2.0000                                         
     4  1  1.50       -46.4050   6.0000                                         
     4  2  2.50        -5.2029   7.0000                                         
     5  0  0.50        -4.2392   1.0000                                         
     5  1  0.50        -1.3606   0.0000                                         
     4  3  2.50        -1.3606   0.0000                                         
   Description                                                                  
     l       E           TYP  RCUT    TYP  RCUT                                 
     2     -5.2028939     23  2.600                                             
     2     -6.5634765     23  2.600                                             
     0     -4.2392259     23  2.700                                             
     0     27.2116520     23  2.700                                             
     1     -4.0817478     23  2.700                                             
     1     27.2116520     23  2.700                                             
     3     -5.4423304     23  2.600                                             
  local pseudopotential read in
  partial core-charges read in
  partial kinetic energy density read in
  atomic valenz-charges read in
  non local Contribution for L=           2  read in
    real space projection operators read in
  non local Contribution for L=           2  read in
    real space projection operators read in
  non local Contribution for L=           0  read in
    real space projection operators read in
  non local Contribution for L=           0  read in
    real space projection operators read in
  non local Contribution for L=           1  read in
    real space projection operators read in
  non local Contribution for L=           1  read in
    real space projection operators read in
    PAW grid and wavefunctions read in
 
   number of l-projection  operators is LMAX  =           6
   number of lm-projection operators is LMMAX =          18
 
 Optimization of the real space projectors (new method)

 maximal supplied QI-value         = 24.76
 optimisation between [QCUT,QGAM] = [ 11.39, 22.77] = [ 36.31,145.25] Ry 
 Optimized for a Real-space Cutoff    1.10 Angstroem

   l    n(q)    QCUT    max X(q) W(low)/X(q) W(high)/X(q)  e(spline) 
   0      7    11.387    20.381    0.22E-03    0.48E-03    0.18E-06
   0      7    11.387    15.268    0.22E-03    0.52E-03    0.19E-06
   1      7    11.387     5.964    0.22E-03    0.73E-03    0.24E-06
   1      7    11.387     5.382    0.19E-03    0.60E-03    0.21E-06
 Optimization of the real space projectors (new method)

 maximal supplied QI-value         = 13.98
 optimisation between [QCUT,QGAM] = [ 11.33, 22.79] = [ 35.93,145.49] Ry 
 Optimized for a Real-space Cutoff    1.56 Angstroem

   l    n(q)    QCUT    max X(q) W(low)/X(q) W(high)/X(q)  e(spline) 
   2     10    11.327    61.733    0.89E-04    0.14E-03    0.14E-06
   2     10    11.327    59.886    0.91E-04    0.15E-03    0.14E-06
   0     11    11.327    23.358    0.43E-04    0.16E-04    0.34E-06
   0     11    11.327    11.320    0.30E-04    0.13E-04    0.28E-06
   1     10    11.327    14.765    0.66E-04    0.60E-04    0.10E-06
   1     10    11.327     8.283    0.48E-04    0.45E-04    0.80E-07
  PAW_PBE O 08Apr2002                   :
 energy of atom  1       EATOM= -432.3788
 kinetic energy error for atom=    0.0224 (will be added to EATOM!!)
  PAW_PBE Ru 04Feb2005                  :
 energy of atom  2       EATOM= -454.8837
 kinetic energy error for atom=    0.0015 (will be added to EATOM!!)
 
 
 POSCAR: AutoCreatByScript                       
  positions in direct lattice
  No initial velocities read in
 exchange correlation table for  LEXCH =        8
   RHO(1)=    0.500       N(1)  =     2000
   RHO(2)=  100.500       N(2)  =     4000
 


--------------------------------------------------------------------------------------------------------


 ion  position               nearest neighbor table
   1  0.339  0.079  0.056-  35 1.94  34 1.99  33 1.99
   2  0.839  0.079  0.056-  36 1.94  34 1.99  33 1.99
   3  0.339  0.468  0.056-  35 1.94  34 1.99  33 1.99
   4  0.839  0.468  0.056-  36 1.94  34 1.99  33 1.99
   5  0.089  0.773  0.112-  39 1.94  36 1.99  35 1.99
   6  0.589  0.773  0.112-  40 1.94  36 1.99  35 1.99
   7  0.089  0.273  0.144-  33 1.94  37 1.99  38 1.99
   8  0.589  0.273  0.144-  34 1.94  37 1.99  38 1.99
   9  0.339  0.579  0.201-  37 1.94  39 1.99  40 1.99
  10  0.839  0.579  0.201-  38 1.94  39 1.99  40 1.99
  11  0.339  0.968  0.201-  37 1.94  39 1.99  40 1.99
  12  0.839  0.968  0.201-  38 1.94  39 1.99  40 1.99
  13  0.089  0.273  0.257-  41 1.94  38 1.99  37 1.99
  14  0.589  0.273  0.257-  42 1.94  38 1.99  37 1.99
  15  0.089  0.773  0.289-  39 1.94  43 1.99  44 1.99
  16  0.589  0.773  0.289-  40 1.94  43 1.99  44 1.99
  17  0.339  0.079  0.345-  43 1.94  42 1.99  41 1.99
  18  0.839  0.079  0.345-  44 1.94  42 1.99  41 1.99
  19  0.339  0.468  0.345-  43 1.94  42 1.99  41 1.99
  20  0.839  0.468  0.345-  44 1.94  42 1.99  41 1.99
  21  0.089  0.773  0.401-  47 1.94  44 1.99  43 1.99
  22  0.589  0.773  0.401-  48 1.94  44 1.99  43 1.99
  23  0.089  0.273  0.433-  41 1.94  45 1.99  46 1.99
  24  0.589  0.273  0.433-  42 1.94  45 1.99  46 1.99
  25  0.339  0.579  0.490-  45 1.94  47 1.99  48 1.99
  26  0.839  0.579  0.490-  46 1.94  47 1.99  48 1.99
  27  0.339  0.968  0.490-  45 1.94  47 1.99  48 1.99
  28  0.839  0.968  0.490-  46 1.94  47 1.99  48 1.99
  29  0.089  0.273  0.546-  45 1.99  46 1.99
  30  0.589  0.273  0.546-  45 1.99  46 1.99
  31  0.089  0.773  0.000-  35 1.99  36 1.99
  32  0.589  0.773  0.000-  35 1.99  36 1.99
  33  0.089  0.273  0.056-   7 1.94   2 1.99   1 1.99   4 1.99   3 1.99  34 3.11  34 3.11
  34  0.589  0.273  0.056-   8 1.94   2 1.99   1 1.99   4 1.99   3 1.99  33 3.11  33 3.11
  35  0.339  0.773  0.056-   3 1.94   1 1.94   5 1.99   6 1.99  31 1.99  32 1.99  36 3.11  36 3.11

  36  0.839  0.773  0.056-   4 1.94   2 1.94   5 1.99   6 1.99  31 1.99  32 1.99  35 3.11  35 3.11

  37  0.339  0.273  0.201-  11 1.94   9 1.94   7 1.99   8 1.99  13 1.99  14 1.99  38 3.11  38 3.11

  38  0.839  0.273  0.201-  12 1.94  10 1.94   7 1.99   8 1.99  13 1.99  14 1.99  37 3.11  37 3.11

  39  0.089  0.773  0.201-   5 1.94  15 1.94  10 1.99   9 1.99  12 1.99  11 1.99  40 3.11  40 3.11

  40  0.589  0.773  0.201-   6 1.94  16 1.94  10 1.99   9 1.99  12 1.99  11 1.99  39 3.11  39 3.11

  41  0.089  0.273  0.345-  23 1.94  13 1.94  18 1.99  17 1.99  20 1.99  19 1.99  42 3.11  42 3.11

  42  0.589  0.273  0.345-  24 1.94  14 1.94  18 1.99  17 1.99  20 1.99  19 1.99  41 3.11  41 3.11

  43  0.339  0.773  0.345-  19 1.94  17 1.94  21 1.99  22 1.99  15 1.99  16 1.99  44 3.11  44 3.11

  44  0.839  0.773  0.345-  20 1.94  18 1.94  21 1.99  22 1.99  15 1.99  16 1.99  43 3.11  43 3.11

  45  0.339  0.273  0.490-  27 1.94  25 1.94  23 1.99  24 1.99  29 1.99  30 1.99  46 3.11  46 3.11

  46  0.839  0.273  0.490-  28 1.94  26 1.94  23 1.99  24 1.99  29 1.99  30 1.99  45 3.11  45 3.11

  47  0.089  0.773  0.490-  21 1.94  25 1.99  26 1.99  27 1.99  28 1.99  48 3.11  48 3.11
  48  0.589  0.773  0.490-  22 1.94  25 1.99  26 1.99  27 1.99  28 1.99  47 3.11  47 3.11
 

IMPORTANT INFORMATION: All symmetrisations will be switched off!
NOSYMM: (Re-)initialisation of all symmetry stuff for point group C_1.

 
 
 KPOINTS: mesh auto                               

Automatic generation of k-mesh.
Space group operators:
 irot       det(A)        alpha          n_x          n_y          n_z        tau_x        tau_y        tau_z
    1     1.000000     0.000000     1.000000     0.000000     0.000000     0.000000     0.000000     0.000000
 
 Subroutine IBZKPT returns following result:
 ===========================================
 
 Found     10 irreducible k-points:
 
 Following reciprocal coordinates:
            Coordinates               Weight
  0.000000  0.000000  0.000000      1.000000
  0.250000  0.000000  0.000000      2.000000
  0.500000  0.000000  0.000000      1.000000
  0.000000  0.250000  0.000000      2.000000
  0.250000  0.250000  0.000000      2.000000
  0.500000  0.250000  0.000000      2.000000
 -0.250000  0.250000  0.000000      2.000000
  0.000000  0.500000  0.000000      1.000000
  0.250000  0.500000  0.000000      2.000000
  0.500000  0.500000  0.000000      1.000000
 
 Following cartesian coordinates:
            Coordinates               Weight
  0.000000  0.000000  0.000000      1.000000
  0.000000  0.000000  0.040170      2.000000
  0.000000  0.000000  0.080340      1.000000
  0.027801 -0.027801  0.000000      2.000000
  0.027801 -0.027801  0.040170      2.000000
  0.027801 -0.027801  0.080340      2.000000
  0.027801 -0.027801 -0.040170      2.000000
  0.055601 -0.055601  0.000000      1.000000
  0.055601 -0.055601  0.040170      2.000000
  0.055601 -0.055601  0.080340      1.000000
 


--------------------------------------------------------------------------------------------------------




 Dimension of arrays:
   k-points           NKPTS =     10   k-points in BZ     NKDIM =     10   number of bands    NBANDS=    216
   number of dos      NEDOS =    301   number of ions     NIONS =     48
   non local maximal  LDIM  =      6   non local SUM 2l+1 LMDIM =     18
   total plane-waves  NPLWV = 373248
   max r-space proj   IRMAX =   6920   max aug-charges    IRDMAX=  29182
   dimension x,y,z NGX =    48 NGY =   48 NGZ =  162
   dimension x,y,z NGXF=    96 NGYF=   96 NGZF=  324
   support grid    NGXF=    96 NGYF=   96 NGZF=  324
   ions per type =              32  16
 NGX,Y,Z   is equivalent  to a cutoff of  12.82, 12.55, 12.24 a.u.
 NGXF,Y,Z  is equivalent  to a cutoff of  25.64, 25.10, 24.47 a.u.


 I would recommend the setting:
   dimension x,y,z NGX =    45 NGY =   46 NGZ =  161
 SYSTEM =  RuO2_suf110                             
 POSCAR =  AutoCreatByScript                       

 Startparameter for this run:
   NWRITE =      2    write-flag & timer
   PREC   = accura    normal or accurate (medium, high low for compatibility)
   ISTART =      0    job   : 0-new  1-cont  2-samecut
   ICHARG =      2    charge: 1-file 2-atom 10-const
   ISPIN  =      2    spin polarized calculation?
   LNONCOLLINEAR =      F non collinear calculations
   LSORBIT =      F    spin-orbit coupling
   INIWAV =      1    electr: 0-lowe 1-rand  2-diag
   LASPH  =      F    aspherical Exc in radial PAW
   METAGGA=      F    non-selfconsistent MetaGGA calc.

 Electronic Relaxation 1
   ENCUT  =  500.0 eV  36.75 Ry    6.06 a.u.  11.35 11.59 40.13*2*pi/ulx,y,z
   ENINI  =  500.0     initial cutoff
   ENAUG  =  605.4 eV  augmentation charge cutoff
   NELM   =    300;   NELMIN=  3; NELMDL= -5     # of ELM steps 
   EDIFF  = 0.1E-03   stopping-criterion for ELM
   LREAL  =      T    real-space projection
   NLSPLINE    = F    spline interpolate recip. space projectors
   LCOMPAT=      F    compatible to vasp.4.4
   GGA_COMPAT  = T    GGA compatible to vasp.4.4-vasp.4.6
   LMAXPAW     = -100 max onsite density
   LMAXMIX     =    2 max onsite mixed and CHGCAR
   VOSKOWN=      0    Vosko Wilk Nusair interpolation
   ROPT   =   -0.00025  -0.00025
 Ionic relaxation
   EDIFFG = -.5E-01   stopping-criterion for IOM
   NSW    =    800    number of steps for IOM
   NBLOCK =      1;   KBLOCK =    800    inner block; outer block 
   IBRION =      2    ionic relax: 0-MD 1-quasi-New 2-CG
   NFREE  =      1    steps in history (QN), initial steepest desc. (CG)
   ISIF   =      2    stress and relaxation
   IWAVPR =     11    prediction:  0-non 1-charg 2-wave 3-comb
   ISYM   =      0    0-nonsym 1-usesym 2-fastsym
   LCORR  =      T    Harris-Foulkes like correction to forces

   POTIM  = 0.1000    time-step for ionic-motion
   TEIN   =    0.0    initial temperature
   TEBEG  =    0.0;   TEEND  =   0.0 temperature during run
   SMASS  =  -3.00    Nose mass-parameter (am)
   estimated Nose-frequenzy (Omega)   =  0.10E-29 period in steps =****** mass=  -0.885E-27a.u.
   SCALEE = 1.0000    scale energy and forces
   NPACO  =    256;   APACO  = 16.0  distance and # of slots for P.C.
   PSTRESS=    0.0 pullay stress

  Mass of Ions in am
   POMASS =  16.00101.07
  Ionic Valenz
   ZVAL   =   6.00  8.00
  Atomic Wigner-Seitz radii
   RWIGS  =  -1.00 -1.00
  virtual crystal weights 
   VCA    =   1.00  1.00
   NELECT =     320.0000    total number of electrons
   NUPDOWN=      -1.0000    fix difference up-down

 DOS related values:
   EMIN   =  10.00;   EMAX   =-10.00  energy-range for DOS
   EFERMI =   0.00
   ISMEAR =     0;   SIGMA  =   0.05  broadening in eV -4-tet -1-fermi 0-gaus

 Electronic relaxation 2 (details)
   IALGO  =     68    algorithm
   LDIAG  =      T    sub-space diagonalisation (order eigenvalues)
   LSUBROT=      F    optimize rotation matrix (better conditioning)
   TURBO    =      0    0=normal 1=particle mesh
   IRESTART =      0    0=no restart 2=restart with 2 vectors
   NREBOOT  =      0    no. of reboots
   NMIN     =      0    reboot dimension
   EREF     =   0.00    reference energy to select bands
   IMIX   =      4    mixing-type and parameters
     AMIX     =   0.40;   BMIX     =  1.00
     AMIX_MAG =   1.60;   BMIX_MAG =  1.00
     AMIN     =   0.10
     WC   =   100.;   INIMIX=   1;  MIXPRE=   1;  MAXMIX= -45

 Intra band minimization:
   WEIMIN = 0.0010     energy-eigenvalue tresh-hold
   EBREAK =  0.12E-06  absolut break condition
   DEPER  =   0.30     relativ break condition  

   TIME   =   0.40     timestep for ELM

  volume/ion in A,a.u.               =      18.14       122.45
  Fermi-wavevector in a.u.,A,eV,Ry     =   1.172540  2.215778 18.705956  1.374849
  Thomas-Fermi vector in A             =   2.308967
 
 Write flags
   LWAVE  =      F    write WAVECAR
   LCHARG =      F    write CHGCAR
   LVTOT  =      F    write LOCPOT, total local potential
   LVHAR  =      F    write LOCPOT, Hartree potential only
   LELF   =      F    write electronic localiz. function (ELF)
   LORBIT =      0    0 simple, 1 ext, 2 COOP (PROOUT)


 Dipole corrections
   LMONO  =      F    monopole corrections only (constant potential shift)
   LDIPOL =      F    correct potential (dipole corrections)
   IDIPOL =      0    1-x, 2-y, 3-z, 4-all directions 
   EPSILON=  1.0000000 bulk dielectric constant

 Exchange correlation treatment:
   GGA     =    --    GGA type
   LEXCH   =     8    internal setting for exchange type
   VOSKOWN=      0    Vosko Wilk Nusair interpolation
   LHFCALC =     F    Hartree Fock is set to
   LHFONE  =     F    Hartree Fock one center treatment
   AEXX    =    0.0000 exact exchange contribution

 Linear response parameters
   LEPSILON=     F    determine dielectric tensor
   LRPA    =     F    only Hartree local field effects (RPA)
   LNABLA  =     F    use nabla operator in PAW spheres
   LVEL    =     F    velocity operator in full k-point grid
   LINTERFAST=   F  fast interpolation
   KINTER  =     0    interpolate to denser k-point grid
   CSHIFT  =0.1000    complex shift for real part using Kramers Kronig
   OMEGAMAX=  -1.0    maximum frequency
   DEG_THRESHOLD= 0.2000000E-02 threshold for treating states as degnerate
   RTIME   =    0.100 relaxation time in fs

 Orbital magnetization related:
   ORBITALMAG=     F  switch on orbital magnetization
   LCHIMAG   =     F  perturbation theory with respect to B field
   DQ        =  0.001000  dq finite difference perturbation B field



--------------------------------------------------------------------------------------------------------


 conjugate gradient relaxation of ions
   using selective dynamics as specified on POSCAR
 charge density and potential will be updated during run
 spin polarized calculation
 RMM-DIIS sequential band-by-band and
  variant of blocked Davidson during initial phase
 perform sub-space diagonalisation
    before iterative eigenvector-optimisation
 modified Broyden-mixing scheme, WC =      100.0
 initial mixing is a Kerker type mixing with AMIX =  0.4000 and BMIX =      1.0000
 Hartree-type preconditioning will be used
 using additional bands           56
 real space projection scheme for non local part
 use partial core corrections
 calculate Harris-corrections to forces 
   (improved forces if not selfconsistent)
 use gradient corrections 
 use of overlap-Matrix (Vanderbilt PP)
 Gauss-broadening in eV      SIGMA  =   0.05


--------------------------------------------------------------------------------------------------------


  energy-cutoff  :      500.00
  volume of cell :      870.95
      direct lattice vectors                 reciprocal lattice vectors
     0.000000000  0.000000000  6.223582370     0.000000000  0.000000000  0.160679162
     4.496294280 -4.496294280  0.000000000     0.111202686 -0.111202686  0.000000000
    15.562049780 15.562049780  0.000000000     0.032129444  0.032129444  0.000000000

  length of vectors
     6.223582370  6.358720351 22.008061857     0.160679162  0.157264346  0.045437895


 
 k-points in units of 2pi/SCALE and weight: mesh auto                               
   0.00000000  0.00000000  0.00000000       0.062
   0.00000000  0.00000000  0.04016979       0.125
   0.00000000  0.00000000  0.08033958       0.062
   0.02780067 -0.02780067  0.00000000       0.125
   0.02780067 -0.02780067  0.04016979       0.125
   0.02780067 -0.02780067  0.08033958       0.125
   0.02780067 -0.02780067 -0.04016979       0.125
   0.05560134 -0.05560134  0.00000000       0.062
   0.05560134 -0.05560134  0.04016979       0.125
   0.05560134 -0.05560134  0.08033958       0.062
 
 k-points in reciprocal lattice and weights: mesh auto                               
   0.00000000  0.00000000  0.00000000       0.062
   0.25000000  0.00000000  0.00000000       0.125
   0.50000000  0.00000000  0.00000000       0.062
   0.00000000  0.25000000  0.00000000       0.125
   0.25000000  0.25000000  0.00000000       0.125
   0.50000000  0.25000000  0.00000000       0.125
  -0.25000000  0.25000000  0.00000000       0.125
   0.00000000  0.50000000  0.00000000       0.062
   0.25000000  0.50000000  0.00000000       0.125
   0.50000000  0.50000000  0.00000000       0.062
 
 position of ions in fractional coordinates (direct lattice) 
   0.33911189  0.07924319  0.05611538
   0.83911189  0.07924319  0.05611538
   0.33911189  0.46768319  0.05611538
   0.83911189  0.46768319  0.05611538
   0.08911189  0.77346319  0.11223075
   0.58911189  0.77346319  0.11223075
   0.08911189  0.27346319  0.14446343
   0.58911189  0.27346319  0.14446343
   0.33911189  0.57924319  0.20057881
   0.83911189  0.57924319  0.20057881
   0.33911189  0.96768319  0.20057881
   0.83911189  0.96768319  0.20057881
   0.08911189  0.27346319  0.25669419
   0.58911189  0.27346319  0.25669419
   0.08911189  0.77346319  0.28892687
   0.58911189  0.77346319  0.28892687
   0.33911189  0.07924319  0.34504224
   0.83911189  0.07924319  0.34504224
   0.33911189  0.46768319  0.34504224
   0.83911189  0.46768319  0.34504224
   0.08911189  0.77346319  0.40115762
   0.58911189  0.77346319  0.40115762
   0.08911189  0.27346319  0.43339030
   0.58911189  0.27346319  0.43339030
   0.33911189  0.57924319  0.48950568
   0.83911189  0.57924319  0.48950568
   0.33911189  0.96768319  0.48950568
   0.83911189  0.96768319  0.48950568
   0.08911189  0.27346319  0.54562105
   0.58911189  0.27346319  0.54562105
   0.08911189  0.77346319  0.00000000
   0.58911189  0.77346319  0.00000000
   0.08911189  0.27346319  0.05611538
   0.58911189  0.27346319  0.05611538
   0.33911189  0.77346319  0.05611538
   0.83911189  0.77346319  0.05611538
   0.33911189  0.27346319  0.20057881
   0.83911189  0.27346319  0.20057881
   0.08911189  0.77346319  0.20057881
   0.58911189  0.77346319  0.20057881
   0.08911189  0.27346319  0.34504224
   0.58911189  0.27346319  0.34504224
   0.33911189  0.77346319  0.34504224
   0.83911189  0.77346319  0.34504224
   0.33911189  0.27346319  0.48950568
   0.83911189  0.27346319  0.48950568
   0.08911189  0.77346319  0.48950568
   0.58911189  0.77346319  0.48950568
 
 position of ions in cartesian coordinates  (Angst):
   1.22957099  0.51696956  2.11049081
   1.22957099  0.51696956  5.22228199
   2.97611154 -1.22957099  2.11049081
   2.97611154 -1.22957099  5.22228199
   5.22425868 -1.73117758  0.55459521
   5.22425868 -1.73117758  3.66638640
   3.47771813  1.01857615  0.55459521
   3.47771813  1.01857615  3.66638640
   5.72586527  0.51696956  2.11049081
   5.72586527  0.51696956  5.22228199
   7.47240582 -1.22957099  2.11049081
   7.47240582 -1.22957099  5.22228199
   5.22425868  2.76511670  0.55459521
   5.22425868  2.76511670  3.66638640
   7.97401241  1.01857615  0.55459521
   7.97401241  1.01857615  3.66638640
   5.72586527  5.01326384  2.11049081
   5.72586527  5.01326384  5.22228199
   7.47240582  3.26672329  2.11049081
   7.47240582  3.26672329  5.22228199
   9.72055296  2.76511670  0.55459521
   9.72055296  2.76511670  3.66638640
   7.97401241  5.51487043  0.55459521
   7.97401241  5.51487043  3.66638640
  10.22215955  5.01326384  2.11049081
  10.22215955  5.01326384  5.22228199
  11.96870010  3.26672329  2.11049081
  11.96870010  3.26672329  5.22228199
   9.72055296  7.26141097  0.55459521
   9.72055296  7.26141097  3.66638640
   3.47771813 -3.47771813  0.55459521
   3.47771813 -3.47771813  3.66638640
   2.10284127 -0.35630072  0.55459521
   2.10284127 -0.35630072  3.66638640
   4.35098841 -2.60444786  2.11049081
   4.35098841 -2.60444786  5.22228199
   4.35098841  1.89184642  2.11049081
   4.35098841  1.89184642  5.22228199
   6.59913555 -0.35630072  0.55459521
   6.59913555 -0.35630072  3.66638640
   6.59913555  4.13999356  0.55459521
   6.59913555  4.13999356  3.66638640
   8.84728269  1.89184642  2.11049081
   8.84728269  1.89184642  5.22228199
   8.84728268  6.38814070  2.11049081
   8.84728268  6.38814070  5.22228199
  11.09542982  4.13999356  0.55459521
  11.09542982  4.13999356  3.66638640
 


--------------------------------------------------------------------------------------------------------


 k-point  1 :   0.0000 0.0000 0.0000  plane waves:   22157
 k-point  2 :   0.2500 0.0000 0.0000  plane waves:   22087
 k-point  3 :   0.5000 0.0000 0.0000  plane waves:   22146
 k-point  4 :   0.0000 0.2500 0.0000  plane waves:   22135
 k-point  5 :   0.2500 0.2500 0.0000  plane waves:   22121
 k-point  6 :   0.5000 0.2500 0.0000  plane waves:   22082
 k-point  7 :  -0.2500 0.2500 0.0000  plane waves:   22121
 k-point  8 :   0.0000 0.5000 0.0000  plane waves:   22104
 k-point  9 :   0.2500 0.5000 0.0000  plane waves:   22088
 k-point 10 :   0.5000 0.5000 0.0000  plane waves:   22068

 maximum and minimum number of plane-waves per node :      3714     3666

 maximum number of plane-waves:     22157
 maximum index in each direction: 
   IXMAX=   11   IYMAX=   11   IZMAX=   40
   IXMIN=  -11   IYMIN=  -12   IZMIN=  -40

 NGX is ok and might be reduce to  46
 NGY is ok and might be reduce to  48
 NGZ is ok and might be reduce to 162

 real space projection operators:
  total allocation   :      19613.56 KBytes
  max/ min on nodes  :       3304.69       3195.62


 parallel 3D FFT for wavefunctions:
    minimum data exchange during FFTs selected (reduces bandwidth)
 parallel 3D FFT for charge:
    minimum data exchange during FFTs selected (reduces bandwidth)


 total amount of memory used by VASP on root node   126491. kBytes
========================================================================

   base      :      30000. kBytes
   nonlr-proj:       9691. kBytes
   fftplans  :       6036. kBytes
   grid      :      14991. kBytes
   one-center:        248. kBytes
   wavefun   :      65525. kBytes
 
     INWAV:  cpu time    0.0000: real time    0.0001
 Broyden mixing: mesh for mixing (old mesh)
   NGX = 23   NGY = 23   NGZ = 81
  (NGX  = 96   NGY  = 96   NGZ  =324)
  gives a total of  42849 points

 initial charge density was supplied:
 charge density of overlapping atoms calculated
 number of electron     320.0000000 magnetization      48.0000000
 keeping initial charge density in first step


--------------------------------------------------------------------------------------------------------


 Maximum index for non-local projection operator         1127
 Maximum index for augmentation-charges         1275 (set IRDMAX)


--------------------------------------------------------------------------------------------------------


 First call to EWALD:  gamma=   0.186
 Maximum number of real-space cells 4x 4x 1
 Maximum number of reciprocal cells 2x 2x 6

 FEWALD executed in parallel
    FEWALD:  cpu time    0.0030: real time    0.0028


----------------------------------------- Iteration    1(   1)  ---------------------------------------


    POTLOK:  cpu time    0.2760: real time    0.2755
    SETDIJ:  cpu time    0.0290: real time    0.0292
     EDDAV:  cpu time   26.6100: real time   26.6153
       DOS:  cpu time    0.0030: real time    0.0034
    --------------------------------------------
      LOOP:  cpu time   26.9239: real time   26.9348

 eigenvalue-minimisations  :  8656
 total energy-change (2. order) : 0.2753488E+04  (-0.1541744E+05)
 number of electron     320.0000000 magnetization      48.0000000
 augmentation part      320.0000000 magnetization      48.0000000

 Free energy of the ion-electron system (eV)
  ---------------------------------------------------
  alpha Z        PSCENC =       609.44296926
  Ewald energy   TEWEN  =     60557.54858511
  -Hartree energ DENC   =    -81632.21679088
  -exchange      EXHF   =         0.00000000
  -V(xc)+E(xc)   XCENC  =       373.09181178
  PAW double counting   =     18486.22485618   -17763.92939513
  entropy T*S    EENTRO =        -0.02399924
  eigenvalues    EBANDS =      1009.82972971
  atomic energy  EATOM  =     21113.52039259
  Solvation  Ediel_sol  =         0.00000000
  ---------------------------------------------------
  free energy    TOTEN  =      2753.48815939 eV

  energy without entropy =     2753.51215862  energy(sigma->0) =     2753.50015900


--------------------------------------------------------------------------------------------------------




----------------------------------------- Iteration    1(   2)  ---------------------------------------


     EDDAV:  cpu time   29.1776: real time   29.1958
       DOS:  cpu time    0.0030: real time    0.0034
    --------------------------------------------
      LOOP:  cpu time   29.1816: real time   29.4800

 eigenvalue-minimisations  :  9776
 total energy-change (2. order) :-0.2799277E+04  (-0.2559164E+04)
 number of electron     320.0000000 magnetization      48.0000000
 augmentation part      320.0000000 magnetization      48.0000000

 Free energy of the ion-electron system (eV)
  ---------------------------------------------------
  alpha Z        PSCENC =       609.44296926
  Ewald energy   TEWEN  =     60557.54858511
  -Hartree energ DENC   =    -81632.21679088
  -exchange      EXHF   =         0.00000000
  -V(xc)+E(xc)   XCENC  =       373.09181178
  PAW double counting   =     18486.22485618   -17763.92939513
  entropy T*S    EENTRO =        -0.04719602
  eigenvalues    EBANDS =     -1789.42395953
  atomic energy  EATOM  =     21113.52039259
  Solvation  Ediel_sol  =         0.00000000
  ---------------------------------------------------
  free energy    TOTEN  =       -45.78872664 eV

  energy without entropy =      -45.74153062  energy(sigma->0) =      -45.76512863


--------------------------------------------------------------------------------------------------------




----------------------------------------- Iteration    1(   3)  ---------------------------------------


     EDDAV:  cpu time   28.8326: real time   28.8417
       DOS:  cpu time    0.0030: real time    0.0034
    --------------------------------------------
      LOOP:  cpu time   28.8366: real time   28.8499

 eigenvalue-minimisations  :  9640
 total energy-change (2. order) :-0.3561797E+03  (-0.3448310E+03)
 number of electron     320.0000000 magnetization      48.0000000
 augmentation part      320.0000000 magnetization      48.0000000

 Free energy of the ion-electron system (eV)
  ---------------------------------------------------
  alpha Z        PSCENC =       609.44296926
  Ewald energy   TEWEN  =     60557.54858511
  -Hartree energ DENC   =    -81632.21679088
  -exchange      EXHF   =         0.00000000
  -V(xc)+E(xc)   XCENC  =       373.09181178
  PAW double counting   =     18486.22485618   -17763.92939513
  entropy T*S    EENTRO =        -0.08421859
  eigenvalues    EBANDS =     -2145.56660483
  atomic energy  EATOM  =     21113.52039259
  Solvation  Ediel_sol  =         0.00000000
  ---------------------------------------------------
  free energy    TOTEN  =      -401.96839452 eV

  energy without entropy =     -401.88417592  energy(sigma->0) =     -401.92628522


--------------------------------------------------------------------------------------------------------




----------------------------------------- Iteration    1(   4)  ---------------------------------------


     EDDAV:  cpu time   30.5953: real time   30.6044
       DOS:  cpu time    0.0030: real time    0.0033
    --------------------------------------------
      LOOP:  cpu time   30.5993: real time   30.6143

 eigenvalue-minimisations  : 10416
 total energy-change (2. order) :-0.1019210E+02  (-0.1005824E+02)
 number of electron     320.0000000 magnetization      48.0000000
 augmentation part      320.0000000 magnetization      48.0000000

 Free energy of the ion-electron system (eV)
  ---------------------------------------------------
  alpha Z        PSCENC =       609.44296926
  Ewald energy   TEWEN  =     60557.54858511
  -Hartree energ DENC   =    -81632.21679088
  -exchange      EXHF   =         0.00000000
  -V(xc)+E(xc)   XCENC  =       373.09181178
  PAW double counting   =     18486.22485618   -17763.92939513
  entropy T*S    EENTRO =        -0.08579331
  eigenvalues    EBANDS =     -2155.75712637
  atomic energy  EATOM  =     21113.52039259
  Solvation  Ediel_sol  =         0.00000000
  ---------------------------------------------------
  free energy    TOTEN  =      -412.16049077 eV

  energy without entropy =     -412.07469747  energy(sigma->0) =     -412.11759412


--------------------------------------------------------------------------------------------------------




----------------------------------------- Iteration    1(   5)  ---------------------------------------


     EDDAV:  cpu time   29.4685: real time   29.4763
       DOS:  cpu time    0.0040: real time    0.0034
    CHARGE:  cpu time    0.8999: real time    0.9000
    MIXING:  cpu time    0.0050: real time    0.0049
    --------------------------------------------
      LOOP:  cpu time   30.3784: real time   30.3995

 eigenvalue-minimisations  :  9936
 total energy-change (2. order) :-0.1936491E+00  (-0.1933271E+00)
 number of electron     319.9999896 magnetization      44.4472559
 augmentation part       59.0863329 magnetization      34.7469523

 Broyden mixing:
  rms(total) = 0.13547E+02    rms(broyden)= 0.13547E+02
  rms(prec ) = 0.13762E+02
  weight for this iteration     100.00

 Free energy of the ion-electron system (eV)
  ---------------------------------------------------
  alpha Z        PSCENC =       609.44296926
  Ewald energy   TEWEN  =     60557.54858511
  -Hartree energ DENC   =    -81632.21679088
  -exchange      EXHF   =         0.00000000
  -V(xc)+E(xc)   XCENC  =       373.09181178
  PAW double counting   =     18486.22485618   -17763.92939513
  entropy T*S    EENTRO =        -0.08575193
  eigenvalues    EBANDS =     -2155.95081680
  atomic energy  EATOM  =     21113.52039259
  Solvation  Ediel_sol  =         0.00000000
  ---------------------------------------------------
  free energy    TOTEN  =      -412.35413982 eV

  energy without entropy =     -412.26838789  energy(sigma->0) =     -412.31126386


--------------------------------------------------------------------------------------------------------




----------------------------------------- Iteration    1(   6)  ---------------------------------------


    POTLOK:  cpu time    0.2710: real time    0.2710
    SETDIJ:  cpu time    0.0250: real time    0.0251
    EDDIAG:  cpu time    4.4423: real time    4.4438
  RMM-DIIS:  cpu time   14.8017: real time   14.8067
    ORTHCH:  cpu time    0.8569: real time    0.8576
       DOS:  cpu time    0.0040: real time    0.0035
    CHARGE:  cpu time    0.8859: real time    0.8864
    MIXING:  cpu time    0.0050: real time    0.0049
    --------------------------------------------
      LOOP:  cpu time   21.2918: real time   21.3034

 eigenvalue-minimisations  :  8640
 total energy-change (2. order) : 0.6830930E+02  (-0.4277206E+02)
 number of electron     319.9999929 magnetization      40.9621455
 augmentation part       67.4349067 magnetization      32.5230624

 Broyden mixing:
  rms(total) = 0.67706E+01    rms(broyden)= 0.67689E+01
  rms(prec ) = 0.70640E+01
  weight for this iteration     100.00

 eigenvalues of (default mixing * dielectric matrix)
  average eigenvalue GAMMA=   0.9185
  0.9185

 Free energy of the ion-electron system (eV)
  ---------------------------------------------------
  alpha Z        PSCENC =       609.44296926
  Ewald energy   TEWEN  =     60557.54858511
  -Hartree energ DENC   =    -82007.11985044
  -exchange      EXHF   =         0.00000000
  -V(xc)+E(xc)   XCENC  =       423.99898922
  PAW double counting   =     22063.11225881   -21368.47780360
  entropy T*S    EENTRO =        -0.04001237
  eigenvalues    EBANDS =     -1736.03036870
  atomic energy  EATOM  =     21113.52039259
  Solvation  Ediel_sol  =         0.00000000
  ---------------------------------------------------
  free energy    TOTEN  =      -344.04484013 eV

  energy without entropy =     -344.00482776  energy(sigma->0) =     -344.02483395


--------------------------------------------------------------------------------------------------------




----------------------------------------- Iteration    1(   7)  ---------------------------------------


    POTLOK:  cpu time    0.2700: real time    0.2704
    SETDIJ:  cpu time    0.0250: real time    0.0252
    EDDIAG:  cpu time    4.4493: real time    4.4494
  RMM-DIIS:  cpu time   14.7897: real time   14.7936
    ORTHCH:  cpu time    0.8569: real time    0.8577
       DOS:  cpu time    0.0040: real time    0.0034
    CHARGE:  cpu time    0.8719: real time    0.8733
    MIXING:  cpu time    0.0050: real time    0.0050
    --------------------------------------------
      LOOP:  cpu time   21.2718: real time   21.2870

 eigenvalue-minimisations  :  8640
 total energy-change (2. order) :-0.3505556E+02  (-0.1252942E+02)
 number of electron     319.9999903 magnetization      38.0745395
 augmentation part       61.7431949 magnetization      32.6472422

 Broyden mixing:
  rms(total) = 0.86348E+01    rms(broyden)= 0.86336E+01
  rms(prec ) = 0.99716E+01
  weight for this iteration     100.00

 eigenvalues of (default mixing * dielectric matrix)
  average eigenvalue GAMMA=   0.8840
  1.3761  0.3919

 Free energy of the ion-electron system (eV)
  ---------------------------------------------------
  alpha Z        PSCENC =       609.44296926
  Ewald energy   TEWEN  =     60557.54858511
  -Hartree energ DENC   =    -81793.34018613
  -exchange      EXHF   =         0.00000000
  -V(xc)+E(xc)   XCENC  =       405.57095660
  PAW double counting   =     24027.42468192   -23343.47018174
  entropy T*S    EENTRO =        -0.04793703
  eigenvalues    EBANDS =     -1955.74967927
  atomic energy  EATOM  =     21113.52039259
  Solvation  Ediel_sol  =         0.00000000
  ---------------------------------------------------
  free energy    TOTEN  =      -379.10039870 eV

  energy without entropy =     -379.05246167  energy(sigma->0) =     -379.07643019


--------------------------------------------------------------------------------------------------------




----------------------------------------- Iteration    1(   8)  ---------------------------------------


    POTLOK:  cpu time    0.2700: real time    0.2705
    SETDIJ:  cpu time    0.0250: real time    0.0251
    EDDIAG:  cpu time    4.4483: real time    4.4485
  RMM-DIIS:  cpu time   14.8217: real time   14.8259
    ORTHCH:  cpu time    0.8579: real time    0.8579
       DOS:  cpu time    0.0030: real time    0.0033
    CHARGE:  cpu time    0.8729: real time    0.8729
    MIXING:  cpu time    0.0050: real time    0.0051
    --------------------------------------------
      LOOP:  cpu time   21.3038: real time   21.3131

 eigenvalue-minimisations  :  8640
 total energy-change (2. order) :-0.1555030E+02  (-0.7069636E+01)
 number of electron     319.9999910 magnetization      33.8395956
 augmentation part       61.3290461 magnetization      30.2507162

 Broyden mixing:
  rms(total) = 0.10700E+02    rms(broyden)= 0.10700E+02
  rms(prec ) = 0.12891E+02
  weight for this iteration     100.00

 eigenvalues of (default mixing * dielectric matrix)
  average eigenvalue GAMMA=   0.7815
  1.7425  0.4640  0.1380

 Free energy of the ion-electron system (eV)
  ---------------------------------------------------
  alpha Z        PSCENC =       609.44296926
  Ewald energy   TEWEN  =     60557.54858511
  -Hartree energ DENC   =    -82204.84291520
  -exchange      EXHF   =         0.00000000
  -V(xc)+E(xc)   XCENC  =       413.84922341
  PAW double counting   =     25527.40986893   -24853.09738314
  entropy T*S    EENTRO =        -0.01165412
  eigenvalues    EBANDS =     -1558.46978335
  atomic energy  EATOM  =     21113.52039259
  Solvation  Ediel_sol  =         0.00000000
  ---------------------------------------------------
  free energy    TOTEN  =      -394.65069653 eV

  energy without entropy =     -394.63904240  energy(sigma->0) =     -394.64486946


--------------------------------------------------------------------------------------------------------




----------------------------------------- Iteration    1(   9)  ---------------------------------------


    POTLOK:  cpu time    0.2700: real time    0.2700
    SETDIJ:  cpu time    0.0250: real time    0.0251
    EDDIAG:  cpu time    4.4443: real time    4.4452
  RMM-DIIS:  cpu time   14.7908: real time   14.7954
    ORTHCH:  cpu time    0.8569: real time    0.8563
       DOS:  cpu time    0.0030: real time    0.0034
    CHARGE:  cpu time    0.8809: real time    0.8811
    MIXING:  cpu time    0.0060: real time    0.0054
    --------------------------------------------
      LOOP:  cpu time   21.2778: real time   21.2954

 eigenvalue-minimisations  :  8640
 total energy-change (2. order) : 0.8418499E+02  (-0.2825740E+01)
 number of electron     319.9999916 magnetization      31.8583935
 augmentation part       62.5827263 magnetization      26.0159468

 Broyden mixing:
  rms(total) = 0.43253E+01    rms(broyden)= 0.43249E+01
  rms(prec ) = 0.49615E+01
  weight for this iteration     100.00

 eigenvalues of (default mixing * dielectric matrix)
  average eigenvalue GAMMA=   0.8146
  2.1059  0.5191  0.4621  0.1713

 Free energy of the ion-electron system (eV)
  ---------------------------------------------------
  alpha Z        PSCENC =       609.44296926
  Ewald energy   TEWEN  =     60557.54858511
  -Hartree energ DENC   =    -82047.52687027
  -exchange      EXHF   =         0.00000000
  -V(xc)+E(xc)   XCENC  =       428.78114933
  PAW double counting   =     27591.18038963   -26927.89764723
  entropy T*S    EENTRO =        -0.03445694
  eigenvalues    EBANDS =     -1635.48021890
  atomic energy  EATOM  =     21113.52039259
  Solvation  Ediel_sol  =         0.00000000
  ---------------------------------------------------
  free energy    TOTEN  =      -310.46570742 eV

  energy without entropy =     -310.43125048  energy(sigma->0) =     -310.44847895


--------------------------------------------------------------------------------------------------------




----------------------------------------- Iteration    1(  10)  ---------------------------------------


    POTLOK:  cpu time    0.2700: real time    0.2700
    SETDIJ:  cpu time    0.0250: real time    0.0252
    EDDIAG:  cpu time    4.4463: real time    4.4465
  RMM-DIIS:  cpu time   14.8237: real time   14.8277
    ORTHCH:  cpu time    0.8549: real time    0.8557
       DOS:  cpu time    0.0040: real time    0.0035
    CHARGE:  cpu time    0.8889: real time    0.8887
    MIXING:  cpu time    0.0050: real time    0.0055
    --------------------------------------------
      LOOP:  cpu time   21.3188: real time   21.3277

 eigenvalue-minimisations  :  8640
 total energy-change (2. order) :-0.1058609E+02  (-0.4961818E+01)
 number of electron     319.9999920 magnetization      30.3583212
 augmentation part       63.2959990 magnetization      23.4551488

 Broyden mixing:
  rms(total) = 0.50487E+01    rms(broyden)= 0.50482E+01
  rms(prec ) = 0.59141E+01
  weight for this iteration     100.00

 eigenvalues of (default mixing * dielectric matrix)
  average eigenvalue GAMMA=   0.7487
  2.3042  0.5950  0.4182  0.2714  0.1548

 Free energy of the ion-electron system (eV)
  ---------------------------------------------------
  alpha Z        PSCENC =       609.44296926
  Ewald energy   TEWEN  =     60557.54858511
  -Hartree energ DENC   =    -82109.73269536
  -exchange      EXHF   =         0.00000000
  -V(xc)+E(xc)   XCENC  =       428.16527355
  PAW double counting   =     27971.96097751   -27310.97094330
  entropy T*S    EENTRO =        -0.05782951
  eigenvalues    EBANDS =     -1580.92852519
  atomic energy  EATOM  =     21113.52039259
  Solvation  Ediel_sol  =         0.00000000
  ---------------------------------------------------
  free energy    TOTEN  =      -321.05179535 eV

  energy without entropy =     -320.99396584  energy(sigma->0) =     -321.02288059


--------------------------------------------------------------------------------------------------------




----------------------------------------- Iteration    1(  11)  ---------------------------------------


    POTLOK:  cpu time    0.2700: real time    0.2701
    SETDIJ:  cpu time    0.0250: real time    0.0251
    EDDIAG:  cpu time    4.4233: real time    4.4236
  RMM-DIIS:  cpu time   14.8817: real time   14.8841
    ORTHCH:  cpu time    0.8579: real time    0.8578
       DOS:  cpu time    0.0040: real time    0.0035
    CHARGE:  cpu time    0.8679: real time    0.8683
    MIXING:  cpu time    0.0060: real time    0.0055
    --------------------------------------------
      LOOP:  cpu time   21.3358: real time   21.3453

 eigenvalue-minimisations  :  8640
 total energy-change (2. order) : 0.1311376E+02  (-0.8464674E+00)
 number of electron     319.9999917 magnetization      29.7676809
 augmentation part       63.6716619 magnetization      24.0803464

 Broyden mixing:
  rms(total) = 0.25652E+01    rms(broyden)= 0.25646E+01
  rms(prec ) = 0.28968E+01
  weight for this iteration     100.00

 eigenvalues of (default mixing * dielectric matrix)
  average eigenvalue GAMMA=   0.6806
  2.0837  0.7146  0.3702  0.3702  0.3884  0.1564

 Free energy of the ion-electron system (eV)
  ---------------------------------------------------
  alpha Z        PSCENC =       609.44296926
  Ewald energy   TEWEN  =     60557.54858511
  -Hartree energ DENC   =    -82021.38041568
  -exchange      EXHF   =         0.00000000
  -V(xc)+E(xc)   XCENC  =       422.15437872
  PAW double counting   =     28169.88659953   -27509.72072878
  entropy T*S    EENTRO =        -0.04922497
  eigenvalues    EBANDS =     -1649.34058804
  atomic energy  EATOM  =     21113.52039259
  Solvation  Ediel_sol  =         0.00000000
  ---------------------------------------------------
  free energy    TOTEN  =      -307.93803227 eV

  energy without entropy =     -307.88880730  energy(sigma->0) =     -307.91341979


--------------------------------------------------------------------------------------------------------




----------------------------------------- Iteration    1(  12)  ---------------------------------------


    POTLOK:  cpu time    0.2700: real time    0.2701
    SETDIJ:  cpu time    0.0250: real time    0.0250
    EDDIAG:  cpu time    4.4253: real time    4.4259
  RMM-DIIS:  cpu time   14.8647: real time   14.8665
    ORTHCH:  cpu time    0.8569: real time    0.8569
       DOS:  cpu time    0.0030: real time    0.0035
    CHARGE:  cpu time    0.8749: real time    0.8749
    MIXING:  cpu time    0.0060: real time    0.0057
    --------------------------------------------
      LOOP:  cpu time   21.3278: real time   21.3394

 eigenvalue-minimisations  :  8640
 total energy-change (2. order) :-0.9991843E+01  (-0.3366559E+00)
 number of electron     319.9999915 magnetization      29.3712647
 augmentation part       63.4684347 magnetization      22.8556173

 Broyden mixing:
  rms(total) = 0.33772E+01    rms(broyden)= 0.33764E+01
  rms(prec ) = 0.54273E+01
  weight for this iteration     100.00

 eigenvalues of (default mixing * dielectric matrix)
  average eigenvalue GAMMA=   0.6027
  2.0510  0.7325  0.3891  0.3891  0.3932  0.1544  0.1096

 Free energy of the ion-electron system (eV)
  ---------------------------------------------------
  alpha Z        PSCENC =       609.44296926
  Ewald energy   TEWEN  =     60557.54858511
  -Hartree energ DENC   =    -81999.45624434
  -exchange      EXHF   =         0.00000000
  -V(xc)+E(xc)   XCENC  =       418.63473456
  PAW double counting   =     27904.66495904   -27243.38258547
  entropy T*S    EENTRO =        -0.03855636
  eigenvalues    EBANDS =     -1678.86412988
  atomic energy  EATOM  =     21113.52039259
  Solvation  Ediel_sol  =         0.00000000
  ---------------------------------------------------
  free energy    TOTEN  =      -317.92987550 eV

  energy without entropy =     -317.89131914  energy(sigma->0) =     -317.91059732


--------------------------------------------------------------------------------------------------------




----------------------------------------- Iteration    1(  13)  ---------------------------------------


    POTLOK:  cpu time    0.2700: real time    0.2697
    SETDIJ:  cpu time    0.0250: real time    0.0251
    EDDIAG:  cpu time    4.4213: real time    4.4220
  RMM-DIIS:  cpu time   14.8477: real time   14.8496
    ORTHCH:  cpu time    0.8569: real time    0.8573
       DOS:  cpu time    0.0040: real time    0.0035
    CHARGE:  cpu time    0.8669: real time    0.8687
    MIXING:  cpu time    0.0060: real time    0.0058
    --------------------------------------------
      LOOP:  cpu time   21.2988: real time   21.4314

 eigenvalue-minimisations  :  8640
 total energy-change (2. order) : 0.5618989E+01  (-0.1550851E+00)
 number of electron     319.9999917 magnetization      28.8090947
 augmentation part       63.4571804 magnetization      23.1925083

 Broyden mixing:
  rms(total) = 0.19364E+01    rms(broyden)= 0.19355E+01
  rms(prec ) = 0.23719E+01
  weight for this iteration     100.00

 eigenvalues of (default mixing * dielectric matrix)
  average eigenvalue GAMMA=   0.5660
  1.9913  0.7042  0.4408  0.4408  0.4345  0.2875  0.1578  0.0706

 Free energy of the ion-electron system (eV)
  ---------------------------------------------------
  alpha Z        PSCENC =       609.44296926
  Ewald energy   TEWEN  =     60557.54858511
  -Hartree energ DENC   =    -81995.30540432
  -exchange      EXHF   =         0.00000000
  -V(xc)+E(xc)   XCENC  =       417.14660805
  PAW double counting   =     27819.92217284   -27158.21588631
  entropy T*S    EENTRO =        -0.04665277
  eigenvalues    EBANDS =     -1676.32367055
  atomic energy  EATOM  =     21113.52039259
  Solvation  Ediel_sol  =         0.00000000
  ---------------------------------------------------
  free energy    TOTEN  =      -312.31088610 eV

  energy without entropy =     -312.26423333  energy(sigma->0) =     -312.28755971


--------------------------------------------------------------------------------------------------------




----------------------------------------- Iteration    1(  14)  ---------------------------------------


    POTLOK:  cpu time    0.2710: real time    0.2702
    SETDIJ:  cpu time    0.0250: real time    0.0251
    EDDIAG:  cpu time    4.4373: real time    4.4379
  RMM-DIIS:  cpu time   14.8877: real time   14.8917
    ORTHCH:  cpu time    0.8599: real time    0.8591
       DOS:  cpu time    0.0030: real time    0.0035
    CHARGE:  cpu time    0.8699: real time    0.8695
    MIXING:  cpu time    0.0060: real time    0.0060
    --------------------------------------------
      LOOP:  cpu time   21.3598: real time   21.3724

 eigenvalue-minimisations  :  8640
 total energy-change (2. order) :-0.2412513E+01  (-0.9858621E-01)
 number of electron     319.9999915 magnetization      27.7932010
 augmentation part       63.4444383 magnetization      21.9590827

 Broyden mixing:
  rms(total) = 0.15981E+01    rms(broyden)= 0.15980E+01
  rms(prec ) = 0.16552E+01
  weight for this iteration     100.00

 eigenvalues of (default mixing * dielectric matrix)
  average eigenvalue GAMMA=   0.5364
  1.9583  0.6722  0.5326  0.5326  0.3984  0.2903  0.1553  0.2161  0.0714

 Free energy of the ion-electron system (eV)
  ---------------------------------------------------
  alpha Z        PSCENC =       609.44296926
  Ewald energy   TEWEN  =     60557.54858511
  -Hartree energ DENC   =    -81992.33753931
  -exchange      EXHF   =         0.00000000
  -V(xc)+E(xc)   XCENC  =       414.83262185
  PAW double counting   =     27756.79113361   -27094.75780085
  entropy T*S    EENTRO =        -0.03657295
  eigenvalues    EBANDS =     -1679.72718848
  atomic energy  EATOM  =     21113.52039259
  Solvation  Ediel_sol  =         0.00000000
  ---------------------------------------------------
  free energy    TOTEN  =      -314.72339919 eV

  energy without entropy =     -314.68682623  energy(sigma->0) =     -314.70511271


--------------------------------------------------------------------------------------------------------




----------------------------------------- Iteration    1(  15)  ---------------------------------------


    POTLOK:  cpu time    0.2700: real time    0.2701
    SETDIJ:  cpu time    0.0260: real time    0.0252
    EDDIAG:  cpu time    4.4273: real time    4.4289
  RMM-DIIS:  cpu time   14.8457: real time   14.8507
    ORTHCH:  cpu time    0.8569: real time    0.8566
       DOS:  cpu time    0.0030: real time    0.0034
    CHARGE:  cpu time    0.8719: real time    0.8711
    MIXING:  cpu time    0.0060: real time    0.0062
    --------------------------------------------
      LOOP:  cpu time   21.3088: real time   21.3211

 eigenvalue-minimisations  :  8640
 total energy-change (2. order) :-0.4917867E+01  (-0.1164270E+00)
 number of electron     319.9999915 magnetization      25.6207740
 augmentation part       63.3314074 magnetization      19.5570008

 Broyden mixing:
  rms(total) = 0.14295E+01    rms(broyden)= 0.14295E+01
  rms(prec ) = 0.15742E+01
  weight for this iteration     100.00

 eigenvalues of (default mixing * dielectric matrix)
  average eigenvalue GAMMA=   0.5702
  1.9192  0.7986  0.7986  0.6134  0.4168  0.3678  0.3678  0.1581  0.1913  0.0703

 Free energy of the ion-electron system (eV)
  ---------------------------------------------------
  alpha Z        PSCENC =       609.44296926
  Ewald energy   TEWEN  =     60557.54858511
  -Hartree energ DENC   =    -81984.19831556
  -exchange      EXHF   =         0.00000000
  -V(xc)+E(xc)   XCENC  =       411.57340142
  PAW double counting   =     27662.13558575   -26999.53985036
  entropy T*S    EENTRO =        -0.03552162
  eigenvalues    EBANDS =     -1690.08851266
  atomic energy  EATOM  =     21113.52039259
  Solvation  Ediel_sol  =         0.00000000
  ---------------------------------------------------
  free energy    TOTEN  =      -319.64126609 eV

  energy without entropy =     -319.60574447  energy(sigma->0) =     -319.62350528


--------------------------------------------------------------------------------------------------------




----------------------------------------- Iteration    1(  16)  ---------------------------------------


    POTLOK:  cpu time    0.2700: real time    0.2700
    SETDIJ:  cpu time    0.0250: real time    0.0251
    EDDIAG:  cpu time    4.4383: real time    4.4401
  RMM-DIIS:  cpu time   14.8787: real time   14.8830
    ORTHCH:  cpu time    0.8589: real time    0.8589
       DOS:  cpu time    0.0030: real time    0.0034
    CHARGE:  cpu time    0.8829: real time    0.8852
    MIXING:  cpu time    0.0070: real time    0.0064
    --------------------------------------------
      LOOP:  cpu time   21.3658: real time   21.3851

 eigenvalue-minimisations  :  8640
 total energy-change (2. order) :-0.1017316E+02  (-0.4171887E+00)
 number of electron     319.9999917 magnetization      21.3170637
 augmentation part       63.1936433 magnetization      15.2612588

 Broyden mixing:
  rms(total) = 0.16953E+01    rms(broyden)= 0.16952E+01
  rms(prec ) = 0.19789E+01
  weight for this iteration     100.00

 eigenvalues of (default mixing * dielectric matrix)
  average eigenvalue GAMMA=   0.6157
  1.5689  1.3861  1.3861  0.5270  0.5270  0.3795  0.3795  0.2171  0.1567  0.1743
  0.0704

 Free energy of the ion-electron system (eV)
  ---------------------------------------------------
  alpha Z        PSCENC =       609.44296926
  Ewald energy   TEWEN  =     60557.54858511
  -Hartree energ DENC   =    -81983.14527848
  -exchange      EXHF   =         0.00000000
  -V(xc)+E(xc)   XCENC  =       406.34663857
  PAW double counting   =     27593.82115906   -26930.78973720
  entropy T*S    EENTRO =        -0.04135905
  eigenvalues    EBANDS =     -1696.51779508
  atomic energy  EATOM  =     21113.52039259
  Solvation  Ediel_sol  =         0.00000000
  ---------------------------------------------------
  free energy    TOTEN  =      -329.81442522 eV

  energy without entropy =     -329.77306617  energy(sigma->0) =     -329.79374569


--------------------------------------------------------------------------------------------------------




----------------------------------------- Iteration    1(  17)  ---------------------------------------


    POTLOK:  cpu time    0.2700: real time    0.2701
    SETDIJ:  cpu time    0.0250: real time    0.0250
    EDDIAG:  cpu time    4.4343: real time    4.4364
  RMM-DIIS:  cpu time   14.8627: real time   14.8657
    ORTHCH:  cpu time    0.8589: real time    0.8597
       DOS:  cpu time    0.0030: real time    0.0034
    CHARGE:  cpu time    0.8789: real time    0.8807
    MIXING:  cpu time    0.0070: real time    0.0066
    --------------------------------------------
      LOOP:  cpu time   21.3398: real time   21.8469

 eigenvalue-minimisations  :  8640
 total energy-change (2. order) :-0.1157420E+02  (-0.1300003E+01)
 number of electron     319.9999916 magnetization      18.7450674
 augmentation part       63.1411315 magnetization      13.5034918

 Broyden mixing:
  rms(total) = 0.10394E+01    rms(broyden)= 0.10393E+01
  rms(prec ) = 0.11320E+01
  weight for this iteration     100.00

 eigenvalues of (default mixing * dielectric matrix)
  average eigenvalue GAMMA=   0.6620
  2.0778  2.0778  0.8740  0.5840  0.5840  0.4208  0.3707  0.3707  0.1915  0.1579
  0.1647  0.0704

 Free energy of the ion-electron system (eV)
  ---------------------------------------------------
  alpha Z        PSCENC =       609.44296926
  Ewald energy   TEWEN  =     60557.54858511
  -Hartree energ DENC   =    -81991.46173712
  -exchange      EXHF   =         0.00000000
  -V(xc)+E(xc)   XCENC  =       399.77715452
  PAW double counting   =     27524.51524958   -26861.12261163
  entropy T*S    EENTRO =        -0.03642118
  eigenvalues    EBANDS =     -1693.57220283
  atomic energy  EATOM  =     21113.52039259
  Solvation  Ediel_sol  =         0.00000000
  ---------------------------------------------------
  free energy    TOTEN  =      -341.38862171 eV

  energy without entropy =     -341.35220053  energy(sigma->0) =     -341.37041112


--------------------------------------------------------------------------------------------------------




----------------------------------------- Iteration    1(  18)  ---------------------------------------


    POTLOK:  cpu time    0.2700: real time    0.2700
    SETDIJ:  cpu time    0.0250: real time    0.0251
    EDDIAG:  cpu time    4.4353: real time    4.4356
  RMM-DIIS:  cpu time   14.8547: real time   14.8590
    ORTHCH:  cpu time    0.8579: real time    0.8575
       DOS:  cpu time    0.0030: real time    0.0034
    CHARGE:  cpu time    0.8779: real time    0.8803
    MIXING:  cpu time    0.0070: real time    0.0068
    --------------------------------------------
      LOOP:  cpu time   21.3318: real time   21.3484

 eigenvalue-minimisations  :  8642
 total energy-change (2. order) :-0.3872952E+01  (-0.3718902E+00)
 number of electron     319.9999916 magnetization      17.1904890
 augmentation part       63.0996199 magnetization      12.1538787

 Broyden mixing:
  rms(total) = 0.83584E+00    rms(broyden)= 0.83579E+00
  rms(prec ) = 0.89655E+00
  weight for this iteration     100.00

 eigenvalues of (default mixing * dielectric matrix)
  average eigenvalue GAMMA=   0.6676
  2.2386  2.2386  0.7731  0.6052  0.6052  0.4915  0.4337  0.3498  0.3498  0.2019
  0.1568  0.1641  0.0704

 Free energy of the ion-electron system (eV)
  ---------------------------------------------------
  alpha Z        PSCENC =       609.44296926
  Ewald energy   TEWEN  =     60557.54858511
  -Hartree energ DENC   =    -81982.33605158
  -exchange      EXHF   =         0.00000000
  -V(xc)+E(xc)   XCENC  =       397.44158698
  PAW double counting   =     27440.03871447   -26776.23242492
  entropy T*S    EENTRO =        -0.03607352
  eigenvalues    EBANDS =     -1704.64927166
  atomic energy  EATOM  =     21113.52039259
  Solvation  Ediel_sol  =         0.00000000
  ---------------------------------------------------
  free energy    TOTEN  =      -345.26157330 eV

  energy without entropy =     -345.22549977  energy(sigma->0) =     -345.24353653


--------------------------------------------------------------------------------------------------------




----------------------------------------- Iteration    1(  19)  ---------------------------------------


    POTLOK:  cpu time    0.2700: real time    0.2703
    SETDIJ:  cpu time    0.0250: real time    0.0251
    EDDIAG:  cpu time    4.4423: real time    4.4442
  RMM-DIIS:  cpu time   14.8317: real time   14.8358
    ORTHCH:  cpu time    0.8579: real time    0.8577
       DOS:  cpu time    0.0030: real time    0.0033
    CHARGE:  cpu time    0.8789: real time    0.8799
    MIXING:  cpu time    0.0070: real time    0.0070
    --------------------------------------------
      LOOP:  cpu time   21.3178: real time   21.4751

 eigenvalue-minimisations  :  8640
 total energy-change (2. order) :-0.1351946E+01  (-0.1120555E+00)
 number of electron     319.9999916 magnetization      14.3678250
 augmentation part       63.1094171 magnetization       9.5661518

 Broyden mixing:
  rms(total) = 0.78542E+00    rms(broyden)= 0.78540E+00
  rms(prec ) = 0.85746E+00
  weight for this iteration     100.00

 eigenvalues of (default mixing * dielectric matrix)
  average eigenvalue GAMMA=   0.7272
  2.5507  2.5507  0.8487  0.8487  0.6818  0.6818  0.4641  0.3682  0.3682  0.2310
  0.1949  0.1571  0.1640  0.0704

 Free energy of the ion-electron system (eV)
  ---------------------------------------------------
  alpha Z        PSCENC =       609.44296926
  Ewald energy   TEWEN  =     60557.54858511
  -Hartree energ DENC   =    -81974.87181720
  -exchange      EXHF   =         0.00000000
  -V(xc)+E(xc)   XCENC  =       396.31246693
  PAW double counting   =     27418.82730532   -26754.99163307
  entropy T*S    EENTRO =        -0.03461776
  eigenvalues    EBANDS =     -1712.36717090
  atomic energy  EATOM  =     21113.52039259
  Solvation  Ediel_sol  =         0.00000000
  ---------------------------------------------------
  free energy    TOTEN  =      -346.61351972 eV

  energy without entropy =     -346.57890197  energy(sigma->0) =     -346.59621085


--------------------------------------------------------------------------------------------------------




----------------------------------------- Iteration    1(  20)  ---------------------------------------


    POTLOK:  cpu time    0.2710: real time    0.2703
    SETDIJ:  cpu time    0.0250: real time    0.0251
    EDDIAG:  cpu time    4.4373: real time    4.4389
  RMM-DIIS:  cpu time   14.8447: real time   14.8491
    ORTHCH:  cpu time    0.8579: real time    0.8575
       DOS:  cpu time    0.0030: real time    0.0034
    CHARGE:  cpu time    0.8769: real time    0.8777
    MIXING:  cpu time    0.0070: real time    0.0072
    --------------------------------------------
      LOOP:  cpu time   21.3248: real time   21.8087

 eigenvalue-minimisations  :  8640
 total energy-change (2. order) :-0.2048309E+01  (-0.2893707E+00)
 number of electron     319.9999915 magnetization      13.0223648
 augmentation part       63.1641223 magnetization       8.9255636

 Broyden mixing:
  rms(total) = 0.66623E+00    rms(broyden)= 0.66618E+00
  rms(prec ) = 0.69201E+00
  weight for this iteration     100.00

 eigenvalues of (default mixing * dielectric matrix)
  average eigenvalue GAMMA=   0.7533
  3.3290  2.1920  1.0029  1.0029  0.6880  0.6880  0.4444  0.4444  0.3535  0.3535
  0.0704  0.2136  0.1969  0.1570  0.1633

 Free energy of the ion-electron system (eV)
  ---------------------------------------------------
  alpha Z        PSCENC =       609.44296926
  Ewald energy   TEWEN  =     60557.54858511
  -Hartree energ DENC   =    -81971.72418144
  -exchange      EXHF   =         0.00000000
  -V(xc)+E(xc)   XCENC  =       394.98475873
  PAW double counting   =     27455.23734972   -26791.80705176
  entropy T*S    EENTRO =        -0.04744916
  eigenvalues    EBANDS =     -1715.81720216
  atomic energy  EATOM  =     21113.52039259
  Solvation  Ediel_sol  =         0.00000000
  ---------------------------------------------------
  free energy    TOTEN  =      -348.66182911 eV

  energy without entropy =     -348.61437996  energy(sigma->0) =     -348.63810453


--------------------------------------------------------------------------------------------------------




----------------------------------------- Iteration    1(  21)  ---------------------------------------


    POTLOK:  cpu time    0.2700: real time    0.2703
    SETDIJ:  cpu time    0.0250: real time    0.0250
    EDDIAG:  cpu time    4.4363: real time    4.4371
  RMM-DIIS:  cpu time   14.8267: real time   14.8313
    ORTHCH:  cpu time    0.8559: real time    0.8556
       DOS:  cpu time    0.0030: real time    0.0034
    CHARGE:  cpu time    0.8779: real time    0.8779
    MIXING:  cpu time    0.0070: real time    0.0074
    --------------------------------------------
      LOOP:  cpu time   21.3028: real time   21.8794

 eigenvalue-minimisations  :  8640
 total energy-change (2. order) :-0.2846497E+00  (-0.3388284E-01)
 number of electron     319.9999915 magnetization      11.8929308
 augmentation part       63.1613397 magnetization       8.0065464

 Broyden mixing:
  rms(total) = 0.61245E+00    rms(broyden)= 0.61243E+00
  rms(prec ) = 0.64303E+00
  weight for this iteration     100.00

 eigenvalues of (default mixing * dielectric matrix)
  average eigenvalue GAMMA=   0.7513
  3.6020  2.1557  1.0874  1.0874  0.6693  0.6693  0.4553  0.4553  0.3394  0.3394
  0.3525  0.0704  0.2226  0.1571  0.1637  0.1948

 Free energy of the ion-electron system (eV)
  ---------------------------------------------------
  alpha Z        PSCENC =       609.44296926
  Ewald energy   TEWEN  =     60557.54858511
  -Hartree energ DENC   =    -81968.32442566
  -exchange      EXHF   =         0.00000000
  -V(xc)+E(xc)   XCENC  =       394.47943609
  PAW double counting   =     27455.20249973   -26791.87957294
  entropy T*S    EENTRO =        -0.04143772
  eigenvalues    EBANDS =     -1718.89492528
  atomic energy  EATOM  =     21113.52039259
  Solvation  Ediel_sol  =         0.00000000
  ---------------------------------------------------
  free energy    TOTEN  =      -348.94647883 eV

  energy without entropy =     -348.90504110  energy(sigma->0) =     -348.92575996


--------------------------------------------------------------------------------------------------------




----------------------------------------- Iteration    1(  22)  ---------------------------------------


    POTLOK:  cpu time    0.2690: real time    0.2694
    SETDIJ:  cpu time    0.0250: real time    0.0250
    EDDIAG:  cpu time    4.4343: real time    4.4347
  RMM-DIIS:  cpu time   14.8597: real time   14.8623
    ORTHCH:  cpu time    0.8559: real time    0.8563
       DOS:  cpu time    0.0030: real time    0.0033
    CHARGE:  cpu time    0.8779: real time    0.8778
    MIXING:  cpu time    0.0080: real time    0.0076
    --------------------------------------------
      LOOP:  cpu time   21.3328: real time   21.5995

 eigenvalue-minimisations  :  8640
 total energy-change (2. order) :-0.5026371E-02  (-0.1313212E-01)
 number of electron     319.9999915 magnetization       9.2592812
 augmentation part       63.1565725 magnetization       5.6388478

 Broyden mixing:
  rms(total) = 0.51610E+00    rms(broyden)= 0.51608E+00
  rms(prec ) = 0.53279E+00
  weight for this iteration     100.00

 eigenvalues of (default mixing * dielectric matrix)
  average eigenvalue GAMMA=   0.8372
  4.4937  2.1617  1.3673  1.3673  0.7288  0.7288  0.6407  0.5086  0.5086  0.3577
  0.3577  0.0704  0.2281  0.1570  0.1636  0.2011  0.1919

 Free energy of the ion-electron system (eV)
  ---------------------------------------------------
  alpha Z        PSCENC =       609.44296926
  Ewald energy   TEWEN  =     60557.54858511
  -Hartree energ DENC   =    -81964.55026806
  -exchange      EXHF   =         0.00000000
  -V(xc)+E(xc)   XCENC  =       394.07661166
  PAW double counting   =     27440.59485615   -26777.24010951
  entropy T*S    EENTRO =        -0.04256650
  eigenvalues    EBANDS =     -1722.30197589
  atomic energy  EATOM  =     21113.52039259
  Solvation  Ediel_sol  =         0.00000000
  ---------------------------------------------------
  free energy    TOTEN  =      -348.95150520 eV

  energy without entropy =     -348.90893870  energy(sigma->0) =     -348.93022195


--------------------------------------------------------------------------------------------------------




----------------------------------------- Iteration    1(  23)  ---------------------------------------


    POTLOK:  cpu time    0.2690: real time    0.2696
    SETDIJ:  cpu time    0.0250: real time    0.0250
    EDDIAG:  cpu time    4.4323: real time    4.4329
  RMM-DIIS:  cpu time   14.8597: real time   14.8619
    ORTHCH:  cpu time    0.8559: real time    0.8559
       DOS:  cpu time    0.0040: real time    0.0034
    CHARGE:  cpu time    0.8769: real time    0.8770
    MIXING:  cpu time    0.0080: real time    0.0080
    --------------------------------------------
      LOOP:  cpu time   21.3328: real time   21.3378

 eigenvalue-minimisations  :  8640
 total energy-change (2. order) :-0.2650337E+00  (-0.1658044E-01)
 number of electron     319.9999915 magnetization       8.1621469
 augmentation part       63.1416922 magnetization       5.0383685

 Broyden mixing:
  rms(total) = 0.47837E+00    rms(broyden)= 0.47835E+00
  rms(prec ) = 0.50985E+00
  weight for this iteration     100.00

 eigenvalues of (default mixing * dielectric matrix)
  average eigenvalue GAMMA=   0.8717
  5.2978  2.0891  1.4859  1.4859  0.7779  0.7779  0.6489  0.5142  0.5142  0.3570
  0.3570  0.3687  0.0704  0.1570  0.1635  0.2279  0.1960  0.2006

 Free energy of the ion-electron system (eV)
  ---------------------------------------------------
  alpha Z        PSCENC =       609.44296926
  Ewald energy   TEWEN  =     60557.54858511
  -Hartree energ DENC   =    -81960.54107288
  -exchange      EXHF   =         0.00000000
  -V(xc)+E(xc)   XCENC  =       393.49894573
  PAW double counting   =     27416.61063258   -26753.17836061
  entropy T*S    EENTRO =        -0.03942592
  eigenvalues    EBANDS =     -1726.07920478
  atomic energy  EATOM  =     21113.52039259
  Solvation  Ediel_sol  =         0.00000000
  ---------------------------------------------------
  free energy    TOTEN  =      -349.21653892 eV

  energy without entropy =     -349.17711300  energy(sigma->0) =     -349.19682596


--------------------------------------------------------------------------------------------------------




----------------------------------------- Iteration    1(  24)  ---------------------------------------


    POTLOK:  cpu time    0.2690: real time    0.2696
    SETDIJ:  cpu time    0.0250: real time    0.0251
    EDDIAG:  cpu time    4.4303: real time    4.4302
  RMM-DIIS:  cpu time   14.8527: real time   14.8574
    ORTHCH:  cpu time    0.8559: real time    0.8576
       DOS:  cpu time    0.0030: real time    0.0034
    CHARGE:  cpu time    0.8769: real time    0.8770
    MIXING:  cpu time    0.0080: real time    0.0081
    --------------------------------------------
      LOOP:  cpu time   21.3218: real time   21.6718

 eigenvalue-minimisations  :  8640
 total energy-change (2. order) :-0.7302433E-01  (-0.1196398E-01)
 number of electron     319.9999915 magnetization       6.3983615
 augmentation part       63.1419364 magnetization       3.5073694

 Broyden mixing:
  rms(total) = 0.45445E+00    rms(broyden)= 0.45443E+00
  rms(prec ) = 0.49251E+00
  weight for this iteration     100.00

 eigenvalues of (default mixing * dielectric matrix)
  average eigenvalue GAMMA=   0.9199
  6.5200  1.9374  1.5655  1.5655  0.8720  0.8720  0.5831  0.5831  0.5951  0.4828
  0.3565  0.3565  0.0704  0.2301  0.2058  0.1934  0.1571  0.1635  0.1679

 Free energy of the ion-electron system (eV)
  ---------------------------------------------------
  alpha Z        PSCENC =       609.44296926
  Ewald energy   TEWEN  =     60557.54858511
  -Hartree energ DENC   =    -81959.16764685
  -exchange      EXHF   =         0.00000000
  -V(xc)+E(xc)   XCENC  =       393.37028406
  PAW double counting   =     27416.31518484   -26752.89778126
  entropy T*S    EENTRO =        -0.03922628
  eigenvalues    EBANDS =     -1727.38232471
  atomic energy  EATOM  =     21113.52039259
  Solvation  Ediel_sol  =         0.00000000
  ---------------------------------------------------
  free energy    TOTEN  =      -349.28956325 eV

  energy without entropy =     -349.25033697  energy(sigma->0) =     -349.26995011


--------------------------------------------------------------------------------------------------------




----------------------------------------- Iteration    1(  25)  ---------------------------------------


    POTLOK:  cpu time    0.2700: real time    0.2694
    SETDIJ:  cpu time    0.0250: real time    0.0251
    EDDIAG:  cpu time    4.4283: real time    4.4299
  RMM-DIIS:  cpu time   14.8307: real time   14.8396
    ORTHCH:  cpu time    0.8549: real time    0.8558
       DOS:  cpu time    0.0040: real time    0.0034
    CHARGE:  cpu time    0.8769: real time    0.8768
    MIXING:  cpu time    0.0080: real time    0.0085
    --------------------------------------------
      LOOP:  cpu time   21.3008: real time   21.9037

 eigenvalue-minimisations  :  8640
 total energy-change (2. order) :-0.4106401E-02  (-0.7196205E-02)
 number of electron     319.9999914 magnetization       4.9815680
 augmentation part       63.1495609 magnetization       2.5005883

 Broyden mixing:
  rms(total) = 0.28175E+00    rms(broyden)= 0.28173E+00
  rms(prec ) = 0.31959E+00
  weight for this iteration     100.00

 eigenvalues of (default mixing * dielectric matrix)
  average eigenvalue GAMMA=   1.0110
  8.1040  1.6659  1.6659  1.6715  1.1184  1.1184  0.7040  0.7040  0.5882  0.4946
  0.4946  0.3567  0.3567  0.0704  0.2287  0.2018  0.1953  0.1570  0.1636  0.1598

 Free energy of the ion-electron system (eV)
  ---------------------------------------------------
  alpha Z        PSCENC =       609.44296926
  Ewald energy   TEWEN  =     60557.54858511
  -Hartree energ DENC   =    -81956.68353017
  -exchange      EXHF   =         0.00000000
  -V(xc)+E(xc)   XCENC  =       393.25246855
  PAW double counting   =     27424.28624918   -26760.90922540
  entropy T*S    EENTRO =        -0.04082380
  eigenvalues    EBANDS =     -1729.71075497
  atomic energy  EATOM  =     21113.52039259
  Solvation  Ediel_sol  =         0.00000000
  ---------------------------------------------------
  free energy    TOTEN  =      -349.29366965 eV

  energy without entropy =     -349.25284585  energy(sigma->0) =     -349.27325775


--------------------------------------------------------------------------------------------------------




----------------------------------------- Iteration    1(  26)  ---------------------------------------


[...]
    197       5.4398      0.00000
    198       5.4400      0.00000
    199       5.5419      0.00000
    200       5.5421      0.00000
    201       5.9805      0.00000
    202       5.9806      0.00000
    203       6.0617      0.00000
    204       6.0619      0.00000
    205       6.2600      0.00000
    206       6.2601      0.00000
    207       6.3475      0.00000
    208       6.3477      0.00000
    209       7.6331      0.00000
    210       7.6334      0.00000
    211       7.7029      0.00000
    212       7.7032      0.00000
    213       8.6545      0.00000
    214       8.6545      0.00000
    215       8.8524      0.00000
    216       8.8525      0.00000


--------------------------------------------------------------------------------------------------------


 soft charge-density along one line, spin component           1
         0         1         2         3         4         5         6         7         8         9
 total charge-density along one line
 
 soft charge-density along one line, spin component           2
         0         1         2         3         4         5         6         7         8         9
 total charge-density along one line
 
 pseudopotential strength for first ion, spin component:           1
 12.906 -15.760   0.003  -0.000  -0.002  -0.004   0.000   0.002
-15.760  19.271  -0.004   0.000   0.002   0.005  -0.000  -0.003
  0.003  -0.004  -9.280   0.000   0.033  11.307  -0.000  -0.044
 -0.000   0.000   0.000  -9.283  -0.000  -0.000  11.312   0.000
 -0.002   0.002   0.033  -0.000  -9.275  -0.044   0.000  11.301
 -0.004   0.005  11.307  -0.000  -0.044 -13.660  -0.000   0.059
  0.000  -0.000  -0.000  11.312   0.000  -0.000 -13.666  -0.000
  0.002  -0.003  -0.044   0.000  11.301   0.059  -0.000 -13.651
 pseudopotential strength for first ion, spin component:           2
 12.910 -15.766   0.003  -0.000  -0.001  -0.004   0.000   0.001
-15.766  19.278  -0.004   0.000   0.001   0.005  -0.000  -0.002
  0.003  -0.004  -9.286   0.000   0.028  11.316  -0.000  -0.037
 -0.000   0.000   0.000  -9.281  -0.000  -0.000  11.309   0.000
 -0.001   0.001   0.028  -0.000  -9.283  -0.037   0.000  11.311
 -0.004   0.005  11.316  -0.000  -0.037 -13.672   0.000   0.050
  0.000  -0.000  -0.000  11.309   0.000   0.000 -13.662  -0.000
  0.001  -0.002  -0.037   0.000  11.311   0.050  -0.000 -13.666
 total augmentation occupancy for first ion, spin component:           1
  2.514   0.303  -0.007   0.000   0.007  -0.003   0.000   0.003
  0.303   0.058  -0.013   0.000   0.005  -0.002   0.000   0.002
 -0.007  -0.013   1.979  -0.000  -0.107   0.207  -0.000  -0.054
  0.000   0.000  -0.000   2.044   0.000  -0.000   0.225  -0.000
  0.007   0.005  -0.107   0.000   1.982  -0.053  -0.000   0.201
 -0.003  -0.002   0.207  -0.000  -0.053   0.029  -0.000  -0.010
  0.000   0.000  -0.000   0.225  -0.000  -0.000   0.031   0.000
  0.003   0.002  -0.054  -0.000   0.201  -0.010   0.000   0.028
 total augmentation occupancy for first ion, spin component:           2
  0.001   0.001  -0.001   0.000   0.000  -0.000  -0.000  -0.000
  0.001   0.000  -0.000   0.000  -0.001   0.000  -0.000  -0.000
 -0.001  -0.000  -0.005   0.000  -0.005   0.001  -0.000   0.001
  0.000   0.000   0.000   0.004  -0.000  -0.000  -0.000   0.000
  0.000  -0.001  -0.005  -0.000  -0.006   0.001   0.000   0.001
 -0.000   0.000   0.001  -0.000   0.001   0.000   0.000  -0.000
 -0.000  -0.000  -0.000  -0.000   0.000   0.000  -0.000  -0.000
 -0.000  -0.000   0.001   0.000   0.001  -0.000  -0.000   0.000


------------------------ aborting loop because EDIFF is reached ----------------------------------------


    CHARGE:  cpu time    0.8599: real time    0.8617
    FORLOC:  cpu time    0.0300: real time    0.0301
    FORNL :  cpu time    6.2570: real time    6.2574
    STRESS:  cpu time   18.8421: real time   18.8456
    FORCOR:  cpu time    0.2860: real time    0.2859
    FORHAR:  cpu time    0.0530: real time    0.0531
    MIXING:  cpu time    0.0060: real time    0.0053
    OFIELD:  cpu time    0.0000: real time    0.0000

 ---------------------------------------------------------------------------------------------

         DFTD3 V3.0 Rev 1        
 Edisp (eV)   -8.89654

 E6    (eV) :    -5.4601
 E8    (eV) :    -3.4364
 % E8        : 38.63
    FORVDW:  cpu time    0.2630: real time    0.2632

  FORCE on cell =-STRESS in cart. coord.  units (eV):
  Direction    XX          YY          ZZ          XY          YZ          ZX
  --------------------------------------------------------------------------------------
  Alpha Z   609.44297   609.44297   609.44297
  Ewald   -7143.44505 -7143.80111 74721.66620-79436.70833     0.01024    -0.02349
  Hartree  1163.75951  1163.65551 79464.89773-77240.29622     0.00938    -0.00194
  E(xc)   -1560.29841 -1560.29975 -1559.79182    -0.10350     0.00008     0.00021
  Local     840.22450   840.66738************156689.24972    -0.01732     0.02755
  n-local  -538.41593  -538.40947  -503.69698   -17.68080    -0.00926     0.00975
  augment   926.83700   926.84513   935.60896    -1.44469     0.00070     0.00073
  Kinetic  5708.97922  5709.01371  5602.02368     1.90878     0.00163     0.00160
  Fock        0.00000     0.00000     0.00000     0.00000     0.00000     0.00000
  vdW        -8.29996    -8.29994    -9.05130     0.87921    -0.00000     0.00000
  -------------------------------------------------------------------------------------
  Total      -1.21615    -1.18557   -10.02551    -4.19584    -0.00456     0.01442
  in kB      -2.23720    -2.18095   -18.44272    -7.71858    -0.00838     0.02652
  external pressure =       -7.62 kB  Pullay stress =        0.00 kB


 VOLUME and BASIS-vectors are now :
 -----------------------------------------------------------------------------
  energy-cutoff  :      500.00
  volume of cell :      870.95
      direct lattice vectors                 reciprocal lattice vectors
     0.000000000  0.000000000  6.223582370     0.000000000  0.000000000  0.160679162
     4.496294280 -4.496294280  0.000000000     0.111202686 -0.111202686  0.000000000
    15.562049780 15.562049780  0.000000000     0.032129444  0.032129444  0.000000000

  length of vectors
     6.223582370  6.358720351 22.008061857     0.160679162  0.157264346  0.045437895


 FORCES acting on ions
    electron-ion (+dipol)            ewald-force                    non-local-force                 convergence-correction
 -----------------------------------------------------------------------------------------------
   0.977E+03 0.991E+03 0.374E-01   -.977E+03 -.990E+03 -.686E-05   0.431E+00 -.189E+01 0.816E-04   0.427E+00 0.218E+00 -.389E-01
   0.977E+03 0.991E+03 -.374E-01   -.977E+03 -.990E+03 0.179E-05   0.431E+00 -.189E+01 -.357E-03   0.427E+00 0.218E+00 0.389E-01
   0.991E+03 0.977E+03 0.374E-01   -.990E+03 -.977E+03 0.613E-06   -.189E+01 0.435E+00 0.249E-02   0.218E+00 0.427E+00 -.389E-01
   0.991E+03 0.977E+03 -.374E-01   -.990E+03 -.977E+03 -.601E-05   -.189E+01 0.435E+00 0.205E-02   0.218E+00 0.427E+00 0.389E-01
   0.698E+03 0.698E+03 -.338E-03   -.699E+03 -.699E+03 -.488E-04   -.300E+00 -.305E+00 0.204E-02   0.684E+00 0.685E+00 0.335E-03
   0.698E+03 0.698E+03 0.195E-03   -.699E+03 -.699E+03 0.193E-03   -.300E+00 -.305E+00 0.203E-02   0.695E+00 0.696E+00 -.442E-03
   0.608E+03 0.608E+03 0.522E-03   -.607E+03 -.607E+03 -.276E-03   -.150E+01 -.151E+01 0.503E-03   0.525E+00 0.524E+00 0.121E-03
   0.608E+03 0.608E+03 0.280E-04   -.607E+03 -.607E+03 0.378E-03   -.150E+01 -.150E+01 0.713E-03   0.557E+00 0.557E+00 -.197E-03
   0.349E+03 0.304E+03 -.366E-02   -.351E+03 -.303E+03 -.182E-02   0.816E+00 -.918E+00 0.118E-02   0.417E+00 0.293E+00 0.583E-02
   0.349E+03 0.304E+03 0.773E-02   -.351E+03 -.303E+03 -.237E-02   0.816E+00 -.918E+00 0.124E-02   0.417E+00 0.292E+00 -.582E-02
   0.304E+03 0.349E+03 -.306E-02   -.303E+03 -.351E+03 -.240E-02   -.917E+00 0.815E+00 0.722E-02   0.291E+00 0.416E+00 0.583E-02
   0.304E+03 0.349E+03 0.675E-02   -.303E+03 -.351E+03 -.139E-02   -.917E+00 0.814E+00 0.734E-02   0.291E+00 0.416E+00 -.582E-02
   0.488E+02 0.488E+02 -.156E-02   -.474E+02 -.474E+02 0.342E-02   -.133E+01 -.133E+01 -.250E-02   0.157E+00 0.154E+00 0.631E-03
   0.488E+02 0.488E+02 -.104E-01   -.474E+02 -.474E+02 0.148E-01   -.134E+01 -.133E+01 -.373E-02   0.166E+00 0.163E+00 -.962E-03
   -.526E+02 -.526E+02 0.265E-01   0.517E+02 0.518E+02 -.340E-01   0.895E+00 0.901E+00 0.935E-02   -.525E-01 -.478E-01 -.135E-02
   -.526E+02 -.526E+02 0.208E-01   0.517E+02 0.517E+02 -.261E-01   0.898E+00 0.905E+00 0.876E-02   -.606E-01 -.560E-01 -.286E-02
   -.312E+03 -.350E+03 -.126E-01   0.311E+03 0.351E+03 0.358E-02   0.818E+00 -.980E+00 0.265E-02   -.158E+00 -.211E+00 0.720E-02
   -.312E+03 -.350E+03 0.626E-02   0.311E+03 0.351E+03 -.334E-02   0.815E+00 -.977E+00 0.319E-02   -.158E+00 -.211E+00 -.660E-02
   -.350E+03 -.311E+03 0.109E-01   0.351E+03 0.311E+03 -.224E-01   -.980E+00 0.833E+00 0.694E-02   -.208E+00 -.160E+00 0.535E-02
   -.350E+03 -.312E+03 0.233E-01   0.351E+03 0.311E+03 -.207E-01   -.977E+00 0.830E+00 0.560E-02   -.208E+00 -.160E+00 -.853E-02
   -.598E+03 -.598E+03 0.346E-01   0.595E+03 0.595E+03 -.450E-01   0.306E+01 0.308E+01 0.108E-01   -.185E+00 -.178E+00 -.756E-03
   -.598E+03 -.598E+03 0.316E-01   0.595E+03 0.595E+03 -.402E-01   0.306E+01 0.308E+01 0.113E-01   -.219E+00 -.212E+00 -.256E-02
   -.701E+03 -.701E+03 -.105E-01   0.702E+03 0.702E+03 0.101E-01   0.398E-01 0.441E-01 -.200E-03   -.487E+00 -.496E+00 0.223E-02
   -.701E+03 -.701E+03 -.185E-01   0.702E+03 0.702E+03 0.229E-01   0.382E-01 0.422E-01 -.166E-02   -.498E+00 -.507E+00 -.140E-02
   -.997E+03 -.992E+03 0.144E-01   0.997E+03 0.995E+03 0.253E-01   0.340E+00 -.280E+01 -.625E-02   -.631E-02 -.413E+00 -.339E-01
   -.997E+03 -.992E+03 -.344E-01   0.997E+03 0.995E+03 0.512E-02   0.340E+00 -.280E+01 -.581E-02   -.521E-02 -.414E+00 0.365E-01
   -.992E+03 -.998E+03 0.115E-02   0.995E+03 0.997E+03 0.394E-01   -.280E+01 0.322E+00 -.480E-02   -.420E+00 -.753E-03 -.326E-01
   -.992E+03 -.998E+03 -.484E-01   0.995E+03 0.997E+03 0.202E-01   -.280E+01 0.322E+00 -.445E-02   -.421E+00 0.297E-03 0.378E-01
   -.120E+04 -.120E+04 -.540E-02   0.122E+04 0.122E+04 0.472E-02   -.164E+02 -.164E+02 0.126E-02   -.833E-01 -.849E-01 0.727E-03
   -.120E+04 -.120E+04 -.241E-02   0.122E+04 0.122E+04 0.332E-02   -.164E+02 -.164E+02 0.201E-02   -.807E-01 -.823E-01 -.166E-02
   0.120E+04 0.120E+04 -.288E-03   -.121E+04 -.121E+04 -.104E-04   0.164E+02 0.164E+02 0.205E-02   0.122E-01 0.122E-01 0.341E-03
   0.120E+04 0.120E+04 0.339E-03   -.121E+04 -.121E+04 0.112E-04   0.164E+02 0.164E+02 0.204E-02   0.846E-02 0.846E-02 -.326E-03
   0.138E+04 0.138E+04 -.148E-03   -.137E+04 -.137E+04 -.542E-04   -.436E+01 -.436E+01 0.230E-02   0.416E+00 0.416E+00 0.142E-03
   0.138E+04 0.138E+04 0.289E-04   -.137E+04 -.137E+04 0.586E-04   -.436E+01 -.436E+01 0.229E-02   0.416E+00 0.416E+00 -.136E-03
   0.128E+04 0.128E+04 0.928E-02   -.128E+04 -.128E+04 -.102E-04   0.300E-01 0.299E-01 0.236E-02   0.474E+00 0.474E+00 -.948E-02
   0.128E+04 0.128E+04 -.971E-02   -.128E+04 -.128E+04 -.369E-05   0.300E-01 0.299E-01 0.200E-02   0.474E+00 0.474E+00 0.950E-02
   0.436E+03 0.436E+03 0.674E-02   -.436E+03 -.436E+03 -.463E-03   -.531E+00 -.532E+00 0.329E-03   0.469E+00 0.468E+00 -.544E-02
   0.436E+03 0.436E+03 -.397E-02   -.436E+03 -.436E+03 -.805E-03   -.531E+00 -.532E+00 0.149E-02   0.469E+00 0.468E+00 0.538E-02
   0.437E+03 0.437E+03 -.696E-02   -.437E+03 -.437E+03 0.657E-02   -.203E+00 -.205E+00 0.355E-02   0.471E+00 0.472E+00 0.814E-04
   0.437E+03 0.437E+03 -.822E-02   -.437E+03 -.437E+03 0.854E-02   -.203E+00 -.205E+00 0.355E-02   0.476E+00 0.477E+00 -.585E-03
   -.443E+03 -.443E+03 0.838E-02   0.444E+03 0.444E+03 -.936E-02   -.199E+00 -.195E+00 0.357E-02   -.253E+00 -.266E+00 -.784E-04
   -.443E+03 -.443E+03 -.376E-01   0.444E+03 0.444E+03 0.434E-01   -.199E+00 -.194E+00 0.676E-02   -.256E+00 -.269E+00 -.681E-02
   -.431E+03 -.431E+03 -.275E-01   0.431E+03 0.431E+03 0.299E-01   0.356E+00 0.360E+00 0.604E-02   -.188E+00 -.175E+00 -.568E-02
   -.431E+03 -.431E+03 -.660E-01   0.431E+03 0.431E+03 0.687E-01   0.356E+00 0.360E+00 0.982E-02   -.188E+00 -.175E+00 -.596E-02
   -.128E+04 -.128E+04 0.122E-01   0.128E+04 0.128E+04 0.103E-02   -.135E+01 -.135E+01 0.490E-03   -.202E+00 -.213E+00 -.121E-01
   -.128E+04 -.128E+04 0.354E-01   0.128E+04 0.128E+04 -.453E-01   -.135E+01 -.135E+01 -.262E-02   -.201E+00 -.212E+00 0.112E-01
   -.134E+04 -.134E+04 0.268E-01   0.133E+04 0.133E+04 -.280E-01   0.482E+01 0.481E+01 -.122E-02   -.321E+00 -.313E+00 0.307E-02
   -.134E+04 -.134E+04 0.271E-01   0.133E+04 0.133E+04 -.277E-01   0.482E+01 0.481E+01 -.133E-02   -.324E+00 -.316E+00 0.237E-02
 -----------------------------------------------------------------------------------------------
   0.560E+01 0.546E+01 -.658E-03   -.455E-12 0.205E-11 0.821E-14   -.956E+01 -.949E+01 0.103E+00   0.399E+01 0.400E+01 -.173E-01
 
 
 POSITION                                       TOTAL-FORCE (eV/Angst)
 -----------------------------------------------------------------------------------
      1.22957      0.51697      2.11049        -0.099245     -0.775256     -0.003159
      1.22957      0.51697      5.22228        -0.099238     -0.775272     -0.000581
      2.97611     -1.22957      2.11049        -0.778944     -0.093546     -0.000788
      2.97611     -1.22957      5.22228        -0.778956     -0.093543      0.001786
      5.22426     -1.73118      0.55460         0.230717      0.227275      0.000225
      5.22426     -1.73118      3.66639         0.231113      0.227710      0.000211
      3.47772      1.01858      0.55460        -0.152208     -0.152649     -0.000891
      3.47772      1.01858      3.66639        -0.150421     -0.150857     -0.000839
      5.72587      0.51697      2.11049        -0.004123     -0.059038     -0.000229
      5.72587      0.51697      5.22228        -0.004136     -0.059046     -0.000987
      7.47241     -1.22957      2.11049        -0.059085     -0.004201      0.005819
      7.47241     -1.22957      5.22228        -0.059091     -0.004210      0.005114
      5.22426      2.76512      0.55460         0.254102      0.255677     -0.001778
      5.22426      2.76512      3.66639         0.254186      0.255693     -0.002025
      7.96283      1.00734      0.55441         0.000567      0.000411     -0.001277
      7.96286      1.00733      3.66620         0.000004      0.000200     -0.001141
      5.73330      5.01633      2.11014         0.023616     -0.002438     -0.000900
      5.73330      5.01633      5.22197         0.024243     -0.003032     -0.002242
      7.47476      3.27439      2.11027        -0.002438      0.024400     -0.000929
      7.47476      3.27438      5.22209        -0.002979      0.025010     -0.002097
      9.69379      2.73794      0.55444         0.030055      0.030215     -0.002054
      9.69379      2.73794      3.66621         0.028040      0.028104     -0.001617
      7.98989      5.53051      0.55435         0.007208      0.009670     -0.000135
      7.98989      5.53051      3.66615         0.006767      0.009159     -0.000438
     10.27939      5.03064      2.11055        -0.016928     -0.002130     -0.002215
     10.27938      5.03064      5.22238        -0.016980     -0.002017     -0.000329
     11.98711      3.32405      2.11046        -0.000614     -0.016579      0.001466
     11.98710      3.32405      5.22228        -0.000520     -0.016652      0.003383
      9.69690      7.23645      0.55441         0.027523      0.025166     -0.000453
      9.69691      7.23647      3.66620         0.026950      0.024588     -0.000492
      3.47772     -3.47772      0.55460         1.181563      1.177281      0.000331
      3.47772     -3.47772      3.66639         1.181645      1.177355      0.000305
      2.10284     -0.35630      0.55460         1.305430      1.307772      0.000480
      2.10284     -0.35630      3.66639         1.301637      1.303982      0.000485
      4.35099     -2.60445      2.11049        -1.539820     -1.538236      0.000392
      4.35099     -2.60445      5.22228        -1.539811     -1.538214      0.000031
      4.35099      1.89185      2.11049        -0.295953     -0.296008     -0.000593
      4.35099      1.89185      5.22228        -0.295893     -0.295957      0.000327
      6.59914     -0.35630      0.55460        -0.115067     -0.115967      0.001485
      6.59914     -0.35630      3.66639        -0.115218     -0.116235      0.001535
      6.61404      4.15526      0.55427         0.005790      0.008081      0.000758
      6.61405      4.15525      3.66597         0.005850      0.008731      0.003989
      8.83030      1.87519      2.11021         0.010190      0.008943      0.001019
      8.83031      1.87520      5.22192         0.010246      0.008886      0.004810
      8.91709      6.45746      2.11026        -0.005243     -0.006966     -0.000138
      8.91710      6.45747      5.22211        -0.005411     -0.007237     -0.003172
     11.02167      4.06592      0.55474        -0.006596     -0.011571     -0.001165
     11.02163      4.06589      3.66653        -0.002520     -0.007450     -0.001287
 -----------------------------------------------------------------------------------
    total drift:                                0.036424     -0.029968      0.084518
  FORCES: max atom, RMS     0.042667    0.015131
  Number: max atom                21
  FORCE total and by dimension    0.104833    0.030215


--------------------------------------------------------------------------------------------------------



  FREE ENERGIE OF THE ION-ELECTRON SYSTEM (eV)
  ---------------------------------------------------
  free  energy   TOTEN  =      -359.13032736 eV

  energy  without entropy=     -359.08515516  energy(sigma->0) =     -359.10774126
 
 d Force = 0.1090998E-02[ 0.462E-03, 0.172E-02]  d Energy = 0.1592153E-02-0.501E-03
 d Force = 0.3213516E+02[ 0.321E+02, 0.321E+02]  d Ewald  = 0.3213516E+02-0.175E-05


--------------------------------------------------------------------------------------------------------


    POTLOK:  cpu time    0.3000: real time    0.6202


--------------------------------------------------------------------------------------------------------


 Conjugate gradient step on ions:
 trial-energy change:   -0.001592  1 .order   -0.001091   -0.001720   -0.000462
  (g-gl).g = 0.378E-03      g.g   = 0.406E-03  gl.gl    = 0.453E-03
 g(Force)  = 0.406E-03   g(Stress)= 0.000E+00 ortho     =-0.125E-06
 gamma     =   0.83481
 trial     =   4.24102
 opt step  =   4.67018  (harmonic =   5.80036) maximal distance =0.00468687
 next E    =  -359.130351   (d E  =  -0.00162)


--------------------------------------------------------------------------------------------------------


  
 reached required accuracy - stopping structural energy minimisation
     LOOP+:  cpu time  129.4833: real time  130.8087
    4ORBIT:  cpu time    0.0000: real time    0.0000

 total amount of memory used by VASP on root node   126491. kBytes
========================================================================

   base      :      30000. kBytes
   nonlr-proj:       9691. kBytes
   fftplans  :       6036. kBytes
   grid      :      14991. kBytes
   one-center:        248. kBytes
   wavefun   :      65525. kBytes
 
  
  
 General timing and accounting informations for this job:
 ========================================================
  
                  Total CPU time used (sec):     4962.577
                            User time (sec):     4956.940
                          System time (sec):        5.636
                         Elapsed time (sec):     5038.201
  
                   Maximum memory used (kb):      208268.
                   Average memory used (kb):           0.
  
                          Minor page faults:        96630
                          Major page faults:            0
                 Voluntary context switches:         6338
