       N       E                     dE             d eps       ncg     rms          rms(c)
DAV:   1     0.217940186251E+04    0.21794E+04   -0.10943E+05  3600   0.118E+03
DAV:   2     0.276961338524E+02   -0.21517E+04   -0.20417E+04  4832   0.279E+02
DAV:   3    -0.279686246970E+03   -0.30738E+03   -0.30174E+03  4272   0.112E+02
DAV:   4    -0.286974323322E+03   -0.72881E+01   -0.72438E+01  4280   0.190E+01
DAV:   5    -0.287193271832E+03   -0.21895E+00   -0.21868E+00  4704   0.289E+00    0.108E+02
RMM:   6    -0.155574831393E+03    0.13162E+03   -0.29537E+02  3600   0.344E+01    0.520E+01
RMM:   7    -0.172544950162E+03   -0.16970E+02   -0.66979E+01  3608   0.147E+01    0.328E+01
RMM:   8    -0.168139434668E+03    0.44055E+01   -0.20044E+01  3600   0.916E+00    0.158E+01
RMM:   9    -0.166518390172E+03    0.16210E+01   -0.38966E+00  3640   0.407E+00    0.127E+01
RMM:  10    -0.180020217043E+03   -0.13502E+02   -0.29776E+00  3602   0.386E+00    0.167E+01
RMM:  11    -0.187046576359E+03   -0.70264E+01   -0.21114E+00  3600   0.306E+00    0.116E+01
RMM:  12    -0.198136191205E+03   -0.11090E+02   -0.30653E+00  3600   0.371E+00    0.123E+01
RMM:  13    -0.218394718584E+03   -0.20259E+02   -0.10670E+01  3600   0.647E+00    0.799E+00
RMM:  14    -0.230781734166E+03   -0.12387E+02   -0.79348E+00  3600   0.522E+00    0.737E+00
RMM:  15    -0.241397410259E+03   -0.10616E+02   -0.93522E+00  3600   0.536E+00    0.722E+00
RMM:  16    -0.249270253305E+03   -0.78728E+01   -0.13194E+01  3600   0.571E+00    0.553E+00
RMM:  17    -0.250488776152E+03   -0.12185E+01   -0.21049E+00  3602   0.225E+00    0.484E+00
RMM:  18    -0.250667448981E+03   -0.17867E+00   -0.26039E-01  3609   0.789E-01    0.350E+00
RMM:  19    -0.250723999848E+03   -0.56551E-01   -0.67799E-02  3611   0.438E-01    0.250E+00
RMM:  20    -0.250753767272E+03   -0.29767E-01   -0.33032E-02  3601   0.297E-01    0.159E+00
RMM:  21    -0.250786621957E+03   -0.32855E-01   -0.23167E-02  3603   0.252E-01    0.581E-01
RMM:  22    -0.250820984159E+03   -0.34362E-01   -0.66227E-03  3602   0.180E-01    0.453E-01
RMM:  23    -0.250848751830E+03   -0.27768E-01   -0.40602E-03  3588   0.124E-01    0.284E-01
RMM:  24    -0.250884711824E+03   -0.35960E-01   -0.26852E-03  3346   0.913E-02    0.570E-01
RMM:  25    -0.250884482444E+03    0.22938E-03   -0.29976E-04  2565   0.526E-02    0.570E-01
RMM:  26    -0.250890388360E+03   -0.59059E-02   -0.28567E-04  2495   0.347E-02    0.532E-01
RMM:  27    -0.250922029685E+03   -0.31641E-01   -0.19471E-03  3186   0.751E-02    0.376E-01
RMM:  28    -0.250972077364E+03   -0.50048E-01   -0.35266E-03  3267   0.908E-02    0.257E-01
RMM:  29    -0.250991436452E+03   -0.19359E-01   -0.10291E-03  2903   0.665E-02    0.294E-01
RMM:  30    -0.251002822836E+03   -0.11386E-01   -0.49902E-04  2595   0.373E-02    0.212E-01
RMM:  31    -0.251040834087E+03   -0.38011E-01   -0.25726E-03  3047   0.705E-02    0.232E-01
RMM:  32    -0.251056877798E+03   -0.16044E-01   -0.16766E-03  2864   0.520E-02    0.107E-01
RMM:  33    -0.251075010883E+03   -0.18133E-01   -0.12044E-03  2743   0.417E-02    0.111E-01
RMM:  34    -0.251077020084E+03   -0.20092E-02   -0.18790E-04  2329   0.186E-02    0.819E-02
RMM:  35    -0.251085017298E+03   -0.79972E-02   -0.23853E-04  2452   0.237E-02    0.555E-02
RMM:  36    -0.251096890058E+03   -0.11873E-01   -0.53225E-04  2559   0.297E-02    0.393E-02
RMM:  37    -0.251099559049E+03   -0.26690E-02   -0.15406E-04  2281   0.171E-02    0.420E-02
RMM:  38    -0.251100357443E+03   -0.79839E-03   -0.74502E-05  2118   0.138E-02    0.207E-02
RMM:  39    -0.251100774914E+03   -0.41747E-03   -0.25745E-05  1637   0.782E-03    0.144E-02
RMM:  40    -0.251100881579E+03   -0.10666E-03   -0.14082E-05  1439   0.624E-03    0.135E-02
RMM:  41    -0.251100927896E+03   -0.46317E-04   -0.91955E-06  1396   0.539E-03
   1 F= -.25972625E+03 E0= -.25972067E+03  d E =-.259726E+03  mag=     0.0004
       N       E                     dE             d eps       ncg     rms          rms(c)
DAV:   1    -0.251196328385E+03   -0.95447E-01   -0.31270E+00  3884   0.428E+00    0.165E+00
RMM:   2    -0.251220112575E+03   -0.23784E-01   -0.10253E-01  3590   0.629E-01    0.155E+00
RMM:   3    -0.251229140817E+03   -0.90282E-02   -0.51028E-02  3568   0.326E-01    0.176E+00
RMM:   4    -0.251202341547E+03    0.26799E-01   -0.13838E-02  3526   0.210E-01    0.455E-01
RMM:   5    -0.251202405294E+03   -0.63746E-04   -0.19168E-03  3169   0.739E-02    0.259E-01
RMM:   6    -0.251202622283E+03   -0.21699E-03   -0.39283E-04  2693   0.400E-02    0.155E-01
RMM:   7    -0.251202773790E+03   -0.15151E-03   -0.23969E-04  2399   0.268E-02    0.220E-01
RMM:   8    -0.251202627485E+03    0.14631E-03   -0.14680E-04  2279   0.240E-02    0.530E-02
RMM:   9    -0.251202705226E+03   -0.77741E-04   -0.35731E-05  2085   0.156E-02
   2 F= -.25982709E+03 E0= -.25982164E+03  d E =-.100839E+00  mag=     0.0002
       N       E                     dE             d eps       ncg     rms          rms(c)
DAV:   1    -0.251314807041E+03   -0.11218E+00   -0.28153E+01  3608   0.123E+01    0.481E+00
RMM:   2    -0.251408325316E+03   -0.93518E-01   -0.81459E-01  3600   0.177E+00    0.202E+00
RMM:   3    -0.251511935161E+03   -0.10361E+00   -0.27284E-01  3600   0.776E-01    0.353E+00
RMM:   4    -0.251380507771E+03    0.13143E+00   -0.99329E-02  3590   0.466E-01    0.142E+00
RMM:   5    -0.251377135015E+03    0.33728E-02   -0.17375E-02  3514   0.191E-01    0.152E+00
RMM:   6    -0.251369792371E+03    0.73426E-02   -0.82582E-03  3515   0.162E-01    0.597E-01
RMM:   7    -0.251370901468E+03   -0.11091E-02   -0.22405E-03  3363   0.105E-01    0.278E-01
RMM:   8    -0.251370844207E+03    0.57261E-04   -0.11754E-03  3287   0.630E-02    0.124E-01
RMM:   9    -0.251370962817E+03   -0.11861E-03   -0.28781E-04  2495   0.318E-02    0.118E-01
RMM:  10    -0.251370984926E+03   -0.22109E-04   -0.16226E-04  2324   0.203E-02
   3 F= -.25999253E+03 E0= -.25998773E+03  d E =-.266279E+00  mag=     0.0006
       N       E                     dE             d eps       ncg     rms          rms(c)
DAV:   1    -0.251375372460E+03   -0.44096E-02   -0.22806E+00  3824   0.343E+00    0.137E+00
RMM:   2    -0.251384522721E+03   -0.91503E-02   -0.65816E-02  3570   0.506E-01    0.931E-01
RMM:   3    -0.251404205285E+03   -0.19683E-01   -0.31273E-02  3562   0.253E-01    0.161E+00
RMM:   4    -0.251384721429E+03    0.19484E-01   -0.13729E-02  3496   0.183E-01    0.129E+00
RMM:   5    -0.251379740188E+03    0.49812E-02   -0.36520E-03  3174   0.109E-01    0.465E-01
RMM:   6    -0.251379761833E+03   -0.21645E-04   -0.12880E-03  3224   0.799E-02    0.240E-01
RMM:   7    -0.251379763230E+03   -0.13969E-05   -0.22811E-04  2484   0.301E-02
   4 F= -.26000049E+03 E0= -.25999587E+03  d E =-.274243E+00  mag=    -0.0019
       N       E                     dE             d eps       ncg     rms          rms(c)
DAV:   1    -0.251415015346E+03   -0.35254E-01   -0.39612E+00  3752   0.464E+00    0.907E-01
RMM:   2    -0.251422987119E+03   -0.79718E-02   -0.85639E-02  3568   0.596E-01    0.486E-01
RMM:   3    -0.251432138570E+03   -0.91515E-02   -0.13177E-02  3543   0.174E-01    0.143E+00
RMM:   4    -0.251421574775E+03    0.10564E-01   -0.63813E-03  3315   0.128E-01    0.484E-01
RMM:   5    -0.251421627566E+03   -0.52791E-04   -0.10994E-03  2911   0.739E-02    0.157E-01
RMM:   6    -0.251421845943E+03   -0.21838E-03   -0.51054E-04  2844   0.467E-02    0.148E-01
RMM:   7    -0.251421785874E+03    0.60069E-04   -0.17573E-04  2323   0.252E-02
   5 F= -.26004039E+03 E0= -.26003576E+03  d E =-.398953E-01  mag=    -0.0036
       N       E                     dE             d eps       ncg     rms          rms(c)
DAV:   1    -0.251445489550E+03   -0.23644E-01   -0.35645E+01  3688   0.139E+01    0.277E+00
RMM:   2    -0.251514912148E+03   -0.69423E-01   -0.78342E-01  3586   0.179E+00    0.923E-01
RMM:   3    -0.251547749173E+03   -0.32837E-01   -0.55796E-02  3591   0.399E-01    0.284E+00
RMM:   4    -0.251508118876E+03    0.39630E-01   -0.26843E-02  3556   0.250E-01    0.858E-01
RMM:   5    -0.251510185689E+03   -0.20668E-02   -0.66852E-03  3431   0.153E-01    0.824E-01
RMM:   6    -0.251508375571E+03    0.18101E-02   -0.45639E-03  3535   0.125E-01    0.360E-01
RMM:   7    -0.251507295809E+03    0.10798E-02   -0.16524E-03  3222   0.754E-02    0.214E-01
RMM:   8    -0.251507654608E+03   -0.35880E-03   -0.20828E-04  2407   0.274E-02    0.291E-01
RMM:   9    -0.251507783384E+03   -0.12878E-03   -0.82860E-05  2198   0.182E-02    0.279E-01
RMM:  10    -0.251508068504E+03   -0.28512E-03   -0.15377E-04  2311   0.176E-02    0.183E-01
RMM:  11    -0.251507621107E+03    0.44740E-03   -0.34997E-04  2507   0.268E-02    0.127E-01
RMM:  12    -0.251507993173E+03   -0.37207E-03   -0.42574E-05  2051   0.167E-02    0.812E-02
RMM:  13    -0.251508146564E+03   -0.15339E-03   -0.20468E-05  1805   0.902E-03    0.215E-02
RMM:  14    -0.251508215578E+03   -0.69015E-04   -0.76087E-06  1407   0.596E-03
   6 F= -.26012042E+03 E0= -.26011597E+03  d E =-.119923E+00  mag=    -0.0024
       N       E                     dE             d eps       ncg     rms          rms(c)
DAV:   1    -0.251230271360E+03    0.27788E+00   -0.14216E+02  3696   0.277E+01    0.573E+00
RMM:   2    -0.251530509732E+03   -0.30024E+00   -0.34109E+00  3600   0.371E+00    0.145E+00
RMM:   3    -0.251515178022E+03    0.15332E-01   -0.81324E-02  3584   0.580E-01    0.126E+00
RMM:   4    -0.251518798809E+03   -0.36208E-02   -0.32619E-02  3585   0.287E-01    0.132E+00
RMM:   5    -0.251511409312E+03    0.73895E-02   -0.20336E-02  3605   0.236E-01    0.123E+00
RMM:   6    -0.251507529093E+03    0.38802E-02   -0.84414E-03  3484   0.146E-01    0.956E-01
RMM:   7    -0.251504203889E+03    0.33252E-02   -0.46920E-03  3490   0.137E-01    0.255E-01
RMM:   8    -0.251504422708E+03   -0.21882E-03   -0.39780E-04  2751   0.496E-02    0.132E-01
RMM:   9    -0.251504522395E+03   -0.99687E-04   -0.23319E-04  2441   0.314E-02
   7 F= -.26010386E+03 E0= -.26009964E+03  d E =-.103366E+00  mag=    -0.0020
       N       E                     dE             d eps       ncg     rms          rms(c)
DAV:   1    -0.251450919430E+03    0.53503E-01   -0.46574E+01  3632   0.157E+01    0.333E+00
RMM:   2    -0.251543258660E+03   -0.92339E-01   -0.10445E+00  3568   0.207E+00    0.807E-01
RMM:   3    -0.251540139004E+03    0.31197E-02   -0.24827E-02  3586   0.322E-01    0.697E-01
RMM:   4    -0.251540044340E+03    0.94663E-04   -0.99455E-03  3543   0.158E-01    0.882E-01
RMM:   5    -0.251536895749E+03    0.31486E-02   -0.61700E-03  3535   0.130E-01    0.511E-01
RMM:   6    -0.251537203681E+03   -0.30793E-03   -0.30832E-03  3414   0.102E-01    0.717E-01
RMM:   7    -0.251535563478E+03    0.16402E-02   -0.98948E-04  2912   0.652E-02    0.110E-01
RMM:   8    -0.251535983434E+03   -0.41996E-03   -0.28843E-04  2515   0.410E-02    0.892E-02
RMM:   9    -0.251535968379E+03    0.15055E-04   -0.10441E-04  2200   0.181E-02
   8 F= -.26014266E+03 E0= -.26013833E+03  d E =-.142171E+00  mag=    -0.0026
       N       E                     dE             d eps       ncg     rms          rms(c)
DAV:   1    -0.251567029420E+03   -0.31046E-01   -0.56715E+00  3688   0.534E+00    0.670E-01
RMM:   2    -0.251578274173E+03   -0.11245E-01   -0.12154E-01  3576   0.696E-01    0.555E-01
RMM:   3    -0.251581695576E+03   -0.34214E-02   -0.89567E-03  3530   0.154E-01    0.983E-01
RMM:   4    -0.251575850951E+03    0.58446E-02   -0.33542E-03  3332   0.103E-01    0.282E-01
RMM:   5    -0.251576518007E+03   -0.66706E-03   -0.81157E-04  2815   0.572E-02    0.321E-01
RMM:   6    -0.251576130486E+03    0.38752E-03   -0.52016E-04  2813   0.446E-02    0.108E-01
RMM:   7    -0.251576170786E+03   -0.40300E-04   -0.20658E-04  2433   0.263E-02
   9 F= -.26018133E+03 E0= -.26017671E+03  d E =-.386681E-01  mag=    -0.0033
       N       E                     dE             d eps       ncg     rms          rms(c)
DAV:   1    -0.251574037073E+03    0.20934E-02   -0.50914E+01  3616   0.160E+01    0.209E+00
RMM:   2    -0.251700568751E+03   -0.12653E+00   -0.11922E+00  3600   0.218E+00    0.171E+00
RMM:   3    -0.251688773551E+03    0.11795E-01   -0.86921E-02  3600   0.499E-01    0.184E+00
RMM:   4    -0.251661303614E+03    0.27470E-01   -0.20149E-02  3573   0.250E-01    0.664E-01
RMM:   5    -0.251660147033E+03    0.11566E-02   -0.56531E-03  3533   0.146E-01    0.461E-01
RMM:   6    -0.251661808084E+03   -0.16611E-02   -0.41288E-03  3397   0.989E-02    0.836E-01
RMM:   7    -0.251658305069E+03    0.35030E-02   -0.16943E-03  3218   0.826E-02    0.172E-01
RMM:   8    -0.251659630677E+03   -0.13256E-02   -0.82817E-04  2907   0.580E-02    0.362E-01
RMM:   9    -0.251659377636E+03    0.25304E-03   -0.50862E-04  2589   0.387E-02    0.286E-01
RMM:  10    -0.251659369720E+03    0.79153E-05   -0.25448E-04  2488   0.367E-02
  10 F= -.26025993E+03 E0= -.26025446E+03  d E =-.117264E+00  mag=    -0.0049
       N       E                     dE             d eps       ncg     rms          rms(c)
DAV:   1    -0.251254528011E+03    0.40485E+00   -0.20231E+02  3616   0.319E+01    0.435E+00
RMM:   2    -0.251825410919E+03   -0.57088E+00   -0.55481E+00  3602   0.460E+00    0.328E+00
RMM:   3    -0.251744350941E+03    0.81060E-01   -0.35963E-01  3600   0.104E+00    0.277E+00
RMM:   4    -0.251664199551E+03    0.80151E-01   -0.79915E-02  3592   0.484E-01    0.165E+00
RMM:   5    -0.251669844108E+03   -0.56446E-02   -0.32670E-02  3553   0.245E-01    0.162E+00
RMM:   6    -0.251661464866E+03    0.83792E-02   -0.21135E-02  3594   0.267E-01    0.127E+00
RMM:   7    -0.251652240334E+03    0.92245E-02   -0.82092E-03  3560   0.173E-01    0.101E+00
RMM:   8    -0.251653875154E+03   -0.16348E-02   -0.36966E-03  3326   0.122E-01    0.107E+00
RMM:   9    -0.251653886089E+03   -0.10935E-04   -0.96800E-04  2846   0.674E-02
  11 F= -.26024528E+03 E0= -.26024177E+03  d E =-.102614E+00  mag=     0.0045
       N       E                     dE             d eps       ncg     rms          rms(c)
DAV:   1    -0.251583888443E+03    0.69987E-01   -0.60633E+01  3632   0.175E+01    0.255E+00
RMM:   2    -0.251739138944E+03   -0.15525E+00   -0.13045E+00  3592   0.231E+00    0.264E+00
RMM:   3    -0.251749358897E+03   -0.10220E-01   -0.16228E-01  3585   0.630E-01    0.221E+00
RMM:   4    -0.251704534501E+03    0.44824E-01   -0.35636E-02  3567   0.324E-01    0.167E+00
RMM:   5    -0.251691047535E+03    0.13487E-01   -0.96104E-03  3466   0.158E-01    0.105E+00
RMM:   6    -0.251693764122E+03   -0.27166E-02   -0.81365E-03  3471   0.147E-01    0.141E+00
RMM:   7    -0.251686040909E+03    0.77232E-02   -0.44307E-03  3356   0.126E-01    0.496E-01
RMM:   8    -0.251686571020E+03   -0.53011E-03   -0.24454E-03  3357   0.890E-02    0.442E-01
RMM:   9    -0.251687622821E+03   -0.10518E-02   -0.14761E-03  3106   0.659E-02    0.587E-01
RMM:  10    -0.251689143012E+03   -0.15202E-02   -0.97730E-04  2871   0.632E-02    0.569E-01
RMM:  11    -0.251687614344E+03    0.15287E-02   -0.13800E-03  2812   0.475E-02    0.287E-01
RMM:  12    -0.251686970477E+03    0.64387E-03   -0.37228E-04  2525   0.309E-02    0.226E-01
RMM:  13    -0.251688677638E+03   -0.17072E-02   -0.35848E-04  2448   0.414E-02    0.877E-02
RMM:  14    -0.251689109027E+03   -0.43139E-03   -0.16089E-04  2265   0.194E-02    0.263E-02
RMM:  15    -0.251689202700E+03   -0.93673E-04   -0.25058E-05  1902   0.117E-02
  12 F= -.26028559E+03 E0= -.26027989E+03  d E =-.142924E+00  mag=     0.0055
       N       E                     dE             d eps       ncg     rms          rms(c)
DAV:   1    -0.251709973195E+03   -0.20864E-01   -0.43055E+00  3776   0.470E+00    0.110E+00
RMM:   2    -0.251730839019E+03   -0.20866E-01   -0.11259E-01  3584   0.677E-01    0.144E+00
RMM:   3    -0.251725388006E+03    0.54510E-02   -0.20355E-02  3570   0.229E-01    0.127E+00
RMM:   4    -0.251717380482E+03    0.80075E-02   -0.54331E-03  3504   0.167E-01    0.297E-01
RMM:   5    -0.251718534043E+03   -0.11536E-02   -0.15184E-03  3073   0.812E-02    0.437E-01
RMM:   6    -0.251717953184E+03    0.58086E-03   -0.70950E-04  2672   0.460E-02    0.184E-01
RMM:   7    -0.251717968752E+03   -0.15568E-04   -0.31469E-04  2555   0.372E-02
  13 F= -.26030899E+03 E0= -.26030328E+03  d E =-.234024E-01  mag=     0.0032
       N       E                     dE             d eps       ncg     rms          rms(c)
DAV:   1    -0.251721247546E+03   -0.32944E-02   -0.97191E+00  3608   0.706E+00    0.165E+00
RMM:   2    -0.251766888161E+03   -0.45641E-01   -0.26213E-01  3589   0.103E+00    0.177E+00
RMM:   3    -0.251754249236E+03    0.12639E-01   -0.49249E-02  3587   0.344E-01    0.154E+00
RMM:   4    -0.251739343928E+03    0.14905E-01   -0.11203E-02  3557   0.205E-01    0.595E-01
RMM:   5    -0.251739404938E+03   -0.61010E-04   -0.20035E-03  3294   0.107E-01    0.302E-01
RMM:   6    -0.251739977531E+03   -0.57259E-03   -0.11502E-03  2934   0.508E-02    0.517E-01
RMM:   7    -0.251739257616E+03    0.71992E-03   -0.83105E-04  2784   0.550E-02    0.310E-01
RMM:   8    -0.251739258979E+03   -0.13625E-05   -0.22186E-04  2433   0.407E-02
  14 F= -.26032223E+03 E0= -.26031656E+03  d E =-.366407E-01  mag=    -0.0003
       N       E                     dE             d eps       ncg     rms          rms(c)
DAV:   1    -0.251752617800E+03   -0.13360E-01   -0.32914E+00  3744   0.424E+00    0.777E-01
RMM:   2    -0.251760601672E+03   -0.79839E-02   -0.75160E-02  3563   0.564E-01    0.689E-01
RMM:   3    -0.251767726320E+03   -0.71246E-02   -0.12031E-02  3519   0.167E-01    0.145E+00
RMM:   4    -0.251757804205E+03    0.99221E-02   -0.49442E-03  3355   0.137E-01    0.528E-01
RMM:   5    -0.251758641240E+03   -0.83703E-03   -0.12025E-03  2917   0.802E-02    0.219E-01
RMM:   6    -0.251758890472E+03   -0.24923E-03   -0.40566E-04  2643   0.493E-02    0.270E-01
RMM:   7    -0.251758679612E+03    0.21086E-03   -0.22948E-04  2354   0.318E-02    0.206E-01
RMM:   8    -0.251758760510E+03   -0.80898E-04   -0.67506E-05  2154   0.251E-02
  15 F= -.26033673E+03 E0= -.26033102E+03  d E =-.144993E-01  mag=    -0.0031
       N       E                     dE             d eps       ncg     rms          rms(c)
DAV:   1    -0.251738306833E+03    0.20373E-01   -0.29589E+01  3728   0.127E+01    0.226E+00
RMM:   2    -0.251800019939E+03   -0.61713E-01   -0.68323E-01  3586   0.168E+00    0.863E-01
RMM:   3    -0.251829773333E+03   -0.29753E-01   -0.43838E-02  3594   0.366E-01    0.227E+00
RMM:   4    -0.251796137377E+03    0.33636E-01   -0.21501E-02  3544   0.237E-01    0.111E+00
RMM:   5    -0.251795521926E+03    0.61545E-03   -0.61901E-03  3357   0.152E-01    0.664E-01
RMM:   6    -0.251794867809E+03    0.65412E-03   -0.29590E-03  3531   0.121E-01    0.379E-01
RMM:   7    -0.251795309436E+03   -0.44163E-03   -0.94523E-04  3031   0.633E-02    0.468E-01
RMM:   8    -0.251794921867E+03    0.38757E-03   -0.28708E-04  2479   0.387E-02    0.424E-01
RMM:   9    -0.251795071148E+03   -0.14928E-03   -0.21419E-04  2377   0.323E-02    0.315E-01
RMM:  10    -0.251795437054E+03   -0.36591E-03   -0.32211E-04  2473   0.274E-02    0.139E-01
RMM:  11    -0.251795463498E+03   -0.26443E-04   -0.11020E-04  2353   0.230E-02
  16 F= -.26035847E+03 E0= -.26035278E+03  d E =-.362405E-01  mag=    -0.0023
       N       E                     dE             d eps       ncg     rms          rms(c)
DAV:   1    -0.251806978241E+03   -0.11541E-01   -0.24362E+00  4016   0.367E+00    0.535E-01
RMM:   2    -0.251813603728E+03   -0.66255E-02   -0.56772E-02  3544   0.486E-01    0.681E-01
RMM:   3    -0.251815264835E+03   -0.16611E-02   -0.50933E-03  3503   0.123E-01    0.104E+00
RMM:   4    -0.251810794949E+03    0.44699E-02   -0.19082E-03  3214   0.114E-01    0.244E-01
RMM:   5    -0.251811663955E+03   -0.86901E-03   -0.51436E-04  2712   0.585E-02    0.198E-01
RMM:   6    -0.251811915913E+03   -0.25196E-03   -0.28690E-04  2481   0.368E-02    0.229E-01
RMM:   7    -0.251811738415E+03    0.17750E-03   -0.11912E-04  2195   0.244E-02    0.514E-02
RMM:   8    -0.251811806705E+03   -0.68290E-04   -0.59077E-05  2101   0.177E-02
  17 F= -.26037079E+03 E0= -.26036510E+03  d E =-.123242E-01  mag=     0.0010
       N       E                     dE             d eps       ncg     rms          rms(c)
DAV:   1    -0.251808530984E+03    0.32074E-02   -0.21896E+01  3712   0.110E+01    0.154E+00
RMM:   2    -0.251863743432E+03   -0.55212E-01   -0.51866E-01  3586   0.146E+00    0.127E+00
RMM:   3    -0.251875746063E+03   -0.12003E-01   -0.42911E-02  3585   0.351E-01    0.178E+00
RMM:   4    -0.251849564833E+03    0.26181E-01   -0.12724E-02  3547   0.211E-01    0.260E-01
RMM:   5    -0.251851780389E+03   -0.22156E-02   -0.24023E-03  3507   0.106E-01    0.389E-01
RMM:   6    -0.251852161137E+03   -0.38075E-03   -0.12212E-03  2928   0.600E-02    0.519E-01
RMM:   7    -0.251851410201E+03    0.75094E-03   -0.66492E-04  2922   0.595E-02    0.923E-02
RMM:   8    -0.251851659608E+03   -0.24941E-03   -0.12916E-04  2278   0.279E-02    0.121E-01
RMM:   9    -0.251851623846E+03    0.35761E-04   -0.42822E-05  2046   0.152E-02
  18 F= -.26039857E+03 E0= -.26039287E+03  d E =-.401042E-01  mag=     0.0012
       N       E                     dE             d eps       ncg     rms          rms(c)
DAV:   1    -0.251713035913E+03    0.13862E+00   -0.87390E+01  3648   0.220E+01    0.288E+00
RMM:   2    -0.251936211049E+03   -0.22318E+00   -0.22125E+00  3590   0.302E+00    0.193E+00
RMM:   3    -0.251949201133E+03   -0.12990E-01   -0.14055E-01  3604   0.662E-01    0.235E+00
RMM:   4    -0.251896547997E+03    0.52653E-01   -0.39011E-02  3580   0.330E-01    0.100E+00
RMM:   5    -0.251899355881E+03   -0.28079E-02   -0.12006E-02  3479   0.167E-01    0.914E-01
RMM:   6    -0.251896374055E+03    0.29818E-02   -0.67036E-03  3556   0.167E-01    0.371E-01
RMM:   7    -0.251896581864E+03   -0.20781E-03   -0.20794E-03  3477   0.916E-02    0.173E-01
RMM:   8    -0.251896690816E+03   -0.10895E-03   -0.37435E-04  2565   0.363E-02    0.256E-01
RMM:   9    -0.251896497631E+03    0.19319E-03   -0.17344E-04  2322   0.254E-02    0.136E-01
RMM:  10    -0.251896545644E+03   -0.48013E-04   -0.69575E-05  2177   0.206E-02
  19 F= -.26041951E+03 E0= -.26041380E+03  d E =-.610452E-01  mag=    -0.0001
       N       E                     dE             d eps       ncg     rms          rms(c)
DAV:   1    -0.251891246339E+03    0.52513E-02   -0.14959E+01  3680   0.904E+00    0.146E+00
RMM:   2    -0.251948856574E+03   -0.57610E-01   -0.37654E-01  3594   0.126E+00    0.177E+00
RMM:   3    -0.251928357825E+03    0.20499E-01   -0.44733E-02  3580   0.349E-01    0.138E+00
RMM:   4    -0.251917902985E+03    0.10455E-01   -0.74202E-03  3540   0.184E-01    0.499E-01
RMM:   5    -0.251918259360E+03   -0.35637E-03   -0.14251E-03  3293   0.939E-02    0.247E-01
RMM:   6    -0.251918850069E+03   -0.59071E-03   -0.11531E-03  3086   0.547E-02    0.452E-01
RMM:   7    -0.251918340454E+03    0.50961E-03   -0.63809E-04  2735   0.506E-02    0.306E-01
RMM:   8    -0.251918320004E+03    0.20450E-04   -0.22290E-04  2436   0.374E-02
  20 F= -.26043305E+03 E0= -.26042743E+03  d E =-.135400E-01  mag=    -0.0051
       N       E                     dE             d eps       ncg     rms          rms(c)
DAV:   1    -0.251906948530E+03    0.11392E-01   -0.12496E+01  3672   0.825E+00    0.135E+00
RMM:   2    -0.251960607512E+03   -0.53659E-01   -0.31962E-01  3594   0.116E+00    0.191E+00
RMM:   3    -0.251936254517E+03    0.24353E-01   -0.40587E-02  3580   0.330E-01    0.120E+00
RMM:   4    -0.251930584382E+03    0.56701E-02   -0.84840E-03  3532   0.180E-01    0.849E-01
RMM:   5    -0.251928700646E+03    0.18837E-02   -0.23042E-03  3181   0.100E-01    0.568E-01
RMM:   6    -0.251928254916E+03    0.44573E-03   -0.96686E-04  3154   0.729E-02    0.282E-01
RMM:   7    -0.251928747459E+03   -0.49254E-03   -0.84614E-04  2749   0.469E-02    0.405E-01
RMM:   8    -0.251928582625E+03    0.16483E-03   -0.47618E-04  2711   0.465E-02    0.269E-01
RMM:   9    -0.251929009773E+03   -0.42715E-03   -0.19212E-04  2387   0.298E-02    0.165E-01
RMM:  10    -0.251929309676E+03   -0.29990E-03   -0.90924E-05  2241   0.170E-02    0.112E-01
RMM:  11    -0.251929457452E+03   -0.14778E-03   -0.72906E-05  2277   0.138E-02    0.439E-02
RMM:  12    -0.251929427595E+03    0.29857E-04   -0.14738E-05  1813   0.106E-02
  21 F= -.26043664E+03 E0= -.26043102E+03  d E =-.171300E-01  mag=    -0.0118
       N       E                     dE             d eps       ncg     rms          rms(c)
DAV:   1    -0.251928918380E+03    0.53907E-03   -0.52993E-02  4024   0.536E-01    0.890E-02
RMM:   2    -0.251929272808E+03   -0.35443E-03   -0.13140E-03  3184   0.745E-02    0.272E-01
RMM:   3    -0.251928975477E+03    0.29733E-03   -0.15874E-04  2217   0.286E-02    0.959E-02
RMM:   4    -0.251929080597E+03   -0.10512E-03   -0.45152E-05  2068   0.229E-02    0.513E-02
RMM:   5    -0.251929083019E+03   -0.24225E-05   -0.64985E-06  1339   0.598E-03
  22 F= -.26043679E+03 E0= -.26043115E+03  d E =-.172740E-01  mag=    -0.0107
       N       E                     dE             d eps       ncg     rms          rms(c)
DAV:   1    -0.251931732920E+03   -0.26523E-02   -0.11616E+00  3624   0.250E+00    0.406E-01
RMM:   2    -0.251934620745E+03   -0.28878E-02   -0.27126E-02  3469   0.339E-01    0.458E-01
RMM:   3    -0.251935794522E+03   -0.11738E-02   -0.35956E-03  3214   0.896E-02    0.710E-01
RMM:   4    -0.251933485333E+03    0.23092E-02   -0.11074E-03  2863   0.717E-02    0.857E-02
RMM:   5    -0.251934101884E+03   -0.61655E-03   -0.25330E-04  2428   0.357E-02    0.265E-01
RMM:   6    -0.251933834920E+03    0.26696E-03   -0.14011E-04  2233   0.277E-02    0.554E-02
RMM:   7    -0.251933936220E+03   -0.10130E-03   -0.49188E-05  2045   0.186E-02    0.765E-02
RMM:   8    -0.251933912498E+03    0.23722E-04   -0.14316E-05  1747   0.946E-03
  23 F= -.26043957E+03 E0= -.26043394E+03  d E =-.277829E-02  mag=    -0.0067
       N       E                     dE             d eps       ncg     rms          rms(c)
DAV:   1    -0.251933067179E+03    0.86904E-03   -0.30133E+00  3632   0.402E+00    0.659E-01
RMM:   2    -0.251940825042E+03   -0.77579E-02   -0.70928E-02  3524   0.546E-01    0.807E-01
RMM:   3    -0.251942963479E+03   -0.21384E-02   -0.95556E-03  3408   0.145E-01    0.999E-01
RMM:   4    -0.251938466418E+03    0.44971E-02   -0.26409E-03  3182   0.107E-01    0.402E-01
RMM:   5    -0.251938568330E+03   -0.10191E-03   -0.48931E-04  2669   0.518E-02    0.180E-01
RMM:   6    -0.251938828128E+03   -0.25980E-03   -0.41465E-04  2744   0.472E-02    0.114E-01
RMM:   7    -0.251938718629E+03    0.10950E-03   -0.11004E-04  2200   0.196E-02    0.755E-02
RMM:   8    -0.251938673647E+03    0.44982E-04   -0.35299E-05  2002   0.108E-02
  24 F= -.26044102E+03 E0= -.26043545E+03  d E =-.423657E-02  mag=     0.0007
       N       E                     dE             d eps       ncg     rms          rms(c)
DAV:   1    -0.251938724664E+03   -0.60348E-05   -0.24617E+00  3680   0.361E+00    0.466E-01
RMM:   2    -0.251943515815E+03   -0.47912E-02   -0.52334E-02  3528   0.464E-01    0.259E-01
RMM:   3    -0.251946783460E+03   -0.32676E-02   -0.32559E-03  3449   0.976E-02    0.955E-01
RMM:   4    -0.251942252787E+03    0.45307E-02   -0.15591E-03  3064   0.865E-02    0.152E-01
RMM:   5    -0.251943331691E+03   -0.10789E-02   -0.40589E-04  2576   0.501E-02    0.229E-01
RMM:   6    -0.251943365988E+03   -0.34297E-04   -0.23400E-04  2413   0.335E-02
  25 F= -.26044431E+03 E0= -.26043877E+03  d E =-.329032E-02  mag=     0.0037
       N       E                     dE             d eps       ncg     rms          rms(c)
DAV:   1    -0.251927904239E+03    0.15427E-01   -0.11454E+01  3648   0.779E+00    0.100E+00
RMM:   2    -0.251949819530E+03   -0.21915E-01   -0.24502E-01  3576   0.100E+00    0.514E-01
RMM:   3    -0.251960217821E+03   -0.10398E-01   -0.13693E-02  3558   0.206E-01    0.126E+00
RMM:   4    -0.251947491433E+03    0.12726E-01   -0.56472E-03  3452   0.134E-01    0.287E-01
RMM:   5    -0.251948588407E+03   -0.10970E-02   -0.10464E-03  3186   0.671E-02    0.249E-01
RMM:   6    -0.251948945505E+03   -0.35710E-03   -0.69006E-04  2745   0.450E-02    0.342E-01
RMM:   7    -0.251948686912E+03    0.25859E-03   -0.49243E-04  2783   0.491E-02    0.165E-01
RMM:   8    -0.251948709688E+03   -0.22776E-04   -0.86794E-05  2197   0.225E-02
  26 F= -.26044663E+03 E0= -.26044113E+03  d E =-.560489E-02  mag=     0.0033
       N       E                     dE             d eps       ncg     rms          rms(c)
DAV:   1    -0.251946352531E+03    0.23344E-02   -0.30290E+00  3772   0.402E+00    0.482E-01
RMM:   2    -0.251952118411E+03   -0.57659E-02   -0.63395E-02  3537   0.514E-01    0.372E-01
RMM:   3    -0.251955482387E+03   -0.33640E-02   -0.44202E-03  3479   0.110E-01    0.868E-01
RMM:   4    -0.251950991942E+03    0.44904E-02   -0.18655E-03  3142   0.891E-02    0.237E-01
RMM:   5    -0.251951690492E+03   -0.69855E-03   -0.50018E-04  2584   0.487E-02    0.212E-01
RMM:   6    -0.251951595047E+03    0.95445E-04   -0.20437E-04  2406   0.341E-02
  27 F= -.26044886E+03 E0= -.26044357E+03  d E =-.222591E-02  mag=     0.0048
       N       E                     dE             d eps       ncg     rms          rms(c)
DAV:   1    -0.251947954030E+03    0.37365E-02   -0.27853E+00  3764   0.385E+00    0.482E-01
RMM:   2    -0.251954488662E+03   -0.65346E-02   -0.58666E-02  3551   0.498E-01    0.761E-01
RMM:   3    -0.251954423860E+03    0.64802E-04   -0.48331E-03  3456   0.119E-01    0.776E-01
RMM:   4    -0.251952317974E+03    0.21059E-02   -0.14224E-03  3125   0.918E-02    0.264E-01
RMM:   5    -0.251952641406E+03   -0.32343E-03   -0.44648E-04  2562   0.433E-02    0.215E-01
RMM:   6    -0.251952520025E+03    0.12138E-03   -0.24140E-04  2449   0.347E-02    0.717E-02
RMM:   7    -0.251952611121E+03   -0.91097E-04   -0.11396E-04  2190   0.213E-02
  28 F= -.26044924E+03 E0= -.26044404E+03  d E =-.260853E-02  mag=     0.0076
       N       E                     dE             d eps       ncg     rms          rms(c)
DAV:   1    -0.251951595682E+03    0.92434E-03   -0.12046E+00  3776   0.262E+00    0.472E-01
RMM:   2    -0.251957031109E+03   -0.54354E-02   -0.31053E-02  3541   0.370E-01    0.103E+00
RMM:   3    -0.251954263675E+03    0.27674E-02   -0.54035E-03  3388   0.122E-01    0.644E-01
RMM:   4    -0.251953584156E+03    0.67952E-03   -0.10374E-03  3078   0.909E-02    0.216E-01
RMM:   5    -0.251953618843E+03   -0.34687E-04   -0.18706E-04  2350   0.258E-02
  29 F= -.26044979E+03 E0= -.26044444E+03  d E =-.550218E-03  mag=     0.0024
       N       E                     dE             d eps       ncg     rms          rms(c)
DAV:   1    -0.251953485845E+03    0.98311E-04   -0.56266E-03  3920   0.190E-01    0.927E-02
RMM:   2    -0.251953839517E+03   -0.35367E-03   -0.48066E-04  2599   0.402E-02    0.378E-01
RMM:   3    -0.251953324862E+03    0.51465E-03   -0.28521E-04  2358   0.343E-02    0.106E-01
RMM:   4    -0.251953508195E+03   -0.18333E-03   -0.10090E-04  2157   0.291E-02    0.777E-02
RMM:   5    -0.251953483372E+03    0.24823E-04   -0.25528E-05  1700   0.979E-03
  30 F= -.26044962E+03 E0= -.26044452E+03  d E =-.382536E-03  mag=    -0.0015
