<?xml version="1.0" encoding="ISO-8859-1"?>
<modeling>
 <generator>
  <i name="program" type="string">vasp </i>
  <i name="version" type="string">5.4.1  </i>
  <i name="subversion" type="string">08Jul2015 (build Apr 24 2014 00:09:29) complex standard with constrain (TS)     parallel </i>
  <i name="platform" type="string">IBM of Center for Computational Chemistry </i>
  <i name="date" type="string">2018 03 17 </i>
  <i name="time" type="string">22:28:30 </i>
 </generator>
 <incar>
  <i type="string" name="SYSTEM"> PbO2_suf110_2x1x4_2fix</i>
  <i type="int" name="ISTART">     0</i>
  <i type="string" name="PREC">accurate       ! [low/medium/high/norma</i>
  <i type="string" name="ALGO">Fast</i>
  <i type="int" name="ISPIN">     2</i>
  <i type="int" name="NELM">   300</i>
  <i type="int" name="NELMIN">     3</i>
  <i type="int" name="IBRION">     2</i>
  <i name="EDIFFG">     -0.05000000</i>
  <i type="int" name="NSW">  1000</i>
  <i type="int" name="ISIF">     2</i>
  <i type="int" name="ISYM">     0</i>
  <i name="ENCUT">    500.00000000</i>
  <i name="POTIM">      0.10000000</i>
  <i type="string" name="LREAL"> A    ! aproximace, T zpomaluje, ale pre</i>
  <i type="int" name="ISMEAR">     0</i>
  <i name="SIGMA">      0.05000000</i>
  <i type="int" name="NWRITE">     2</i>
  <i type="logical" name="LWAVE"> F  </i>
  <i type="logical" name="LCHARG"> F  </i>
  <v type="int" name="KPOINT_BSE">    -1     0     0     0</v>
  <i type="int" name="NELM">   300</i>
 </incar>
 <kpoints>
  <generation param="Gamma">
   <v type="int" name="divisions">       3        3        1 </v>
   <v name="usershift">      0.00000000       0.00000000       0.00000000 </v>
   <v name="genvec1">      0.33333333       0.00000000       0.00000000 </v>
   <v name="genvec2">      0.00000000       0.33333333       0.00000000 </v>
   <v name="genvec3">      0.00000000       0.00000000       1.00000000 </v>
   <v name="shift">      0.00000000       0.00000000       0.00000000 </v>
  </generation>
  <varray name="kpointlist" >
   <v>       0.00000000       0.00000000       0.00000000 </v>
   <v>       0.33333333       0.00000000       0.00000000 </v>
   <v>       0.00000000       0.33333333       0.00000000 </v>
   <v>       0.33333333       0.33333333       0.00000000 </v>
   <v>      -0.33333333       0.33333333       0.00000000 </v>
  </varray>
  <varray name="weights" >
   <v>       0.11111111 </v>
   <v>       0.22222222 </v>
   <v>       0.22222222 </v>
   <v>       0.22222222 </v>
   <v>       0.22222222 </v>
  </varray>
 </kpoints>
 <parameters>
  <separator name="general" >
   <i type="string" name="SYSTEM">PbO2_suf110_2x1x4_2fix</i>
   <i type="logical" name="LCOMPAT"> F  </i>
  </separator>
  <separator name="electronic" >
   <i type="string" name="PREC">accura</i>
   <i name="ENMAX">    500.00000000</i>
   <i name="ENAUG">    605.39200000</i>
   <i name="EDIFF">      0.00010000</i>
   <i type="int" name="IALGO">    68</i>
   <i type="int" name="IWAVPR">    11</i>
   <i type="int" name="NBANDS">   180</i>
   <i name="NELECT">    256.00000000</i>
   <i type="int" name="TURBO">     0</i>
   <i type="int" name="IRESTART">     0</i>
   <i type="int" name="NREBOOT">     0</i>
   <i type="int" name="NMIN">     0</i>
   <i name="EREF">      0.00000000</i>
   <separator name="electronic smearing" >
    <i type="int" name="ISMEAR">     0</i>
    <i name="SIGMA">      0.05000000</i>
    <i name="KSPACING">      0.50000000</i>
    <i type="logical" name="KGAMMA"> T  </i>
   </separator>
   <separator name="electronic projectors" >
    <i type="logical" name="LREAL"> T  </i>
    <v name="ROPT">     -0.00025000     -0.00025000</v>
    <i type="int" name="LMAXPAW">  -100</i>
    <i type="int" name="LMAXMIX">     2</i>
    <i type="logical" name="NLSPLINE"> F  </i>
   </separator>
   <separator name="electronic startup" >
    <i type="int" name="ISTART">     0</i>
    <i type="int" name="ICHARG">     2</i>
    <i type="int" name="INIWAV">     1</i>
   </separator>
   <separator name="electronic spin" >
    <i type="int" name="ISPIN">     2</i>
    <i type="logical" name="LNONCOLLINEAR"> F  </i>
    <v name="MAGMOM">      1.00000000      1.00000000      1.00000000      1.00000000      1.00000000      1.00000000      1.00000000      1.00000000      1.00000000      1.00000000      1.00000000      1.00000000      1.00000000      1.00000000      1.00000000      1.00000000      1.00000000      1.00000000      1.00000000      1.00000000
      1.00000000      1.00000000      1.00000000      1.00000000      1.00000000      1.00000000      1.00000000      1.00000000      1.00000000      1.00000000      1.00000000      1.00000000      1.00000000      1.00000000      1.00000000      1.00000000      1.00000000      1.00000000      1.00000000      1.00000000
      1.00000000      1.00000000      1.00000000      1.00000000      1.00000000      1.00000000      1.00000000      1.00000000</v>
    <i name="NUPDOWN">     -1.00000000</i>
    <i type="logical" name="LSORBIT"> F  </i>
    <v name="SAXIS">      0.00000000      0.00000000      1.00000000</v>
    <i type="logical" name="LSPIRAL"> F  </i>
    <v name="QSPIRAL">      0.00000000      0.00000000      0.00000000</v>
    <i type="logical" name="LZEROZ"> F  </i>
   </separator>
   <separator name="electronic exchange-correlation" >
    <i type="logical" name="LASPH"> F  </i>
    <i type="logical" name="LMETAGGA"> F  </i>
   </separator>
   <separator name="electronic convergence" >
    <i type="int" name="NELM">   300</i>
    <i type="int" name="NELMDL">    -5</i>
    <i type="int" name="NELMIN">     3</i>
    <i name="ENINI">    500.00000000</i>
    <separator name="electronic convergence detail" >
     <i type="logical" name="LDIAG"> T  </i>
     <i type="logical" name="LSUBROT"> F  </i>
     <i name="WEIMIN">      0.00100000</i>
     <i name="EBREAK">      0.00000014</i>
     <i name="DEPER">      0.30000000</i>
     <i type="int" name="NRMM">     4</i>
     <i name="TIME">      0.40000000</i>
    </separator>
   </separator>
   <separator name="electronic mixer" >
    <i name="AMIX">      0.40000000</i>
    <i name="BMIX">      1.00000000</i>
    <i name="AMIN">      0.10000000</i>
    <i name="AMIX_MAG">      1.60000000</i>
    <i name="BMIX_MAG">      1.00000000</i>
    <separator name="electronic mixer details" >
     <i type="int" name="IMIX">     4</i>
     <i type="logical" name="MIXFIRST"> F  </i>
     <i type="int" name="MAXMIX">   -45</i>
     <i name="WC">    100.00000000</i>
     <i type="int" name="INIMIX">     1</i>
     <i type="int" name="MIXPRE">     1</i>
     <i type="int" name="MREMOVE">     5</i>
    </separator>
   </separator>
   <separator name="electronic dipolcorrection" >
    <i type="logical" name="LDIPOL"> F  </i>
    <i type="logical" name="LMONO"> F  </i>
    <i type="int" name="IDIPOL">     0</i>
    <i name="EPSILON">      1.00000000</i>
    <v name="DIPOL">   -100.00000000   -100.00000000   -100.00000000</v>
    <i name="EFIELD">      0.00000000</i>
   </separator>
  </separator>
  <separator name="grids" >
   <i type="int" name="NGX">    50</i>
   <i type="int" name="NGY">    54</i>
   <i type="int" name="NGZ">   180</i>
   <i type="int" name="NGXF">   100</i>
   <i type="int" name="NGYF">   108</i>
   <i type="int" name="NGZF">   360</i>
   <i type="logical" name="ADDGRID"> F  </i>
  </separator>
  <separator name="ionic" >
   <i type="int" name="NSW">  1000</i>
   <i type="int" name="IBRION">     2</i>
   <i type="int" name="ISIF">     2</i>
   <i name="PSTRESS">      0.00000000</i>
   <i name="EDIFFG">     -0.05000000</i>
   <i type="int" name="NFREE">     1</i>
   <i name="POTIM">      0.10000000</i>
   <i name="SMASS">     -3.00000000</i>
   <i name="SCALEE">      1.00000000</i>
  </separator>
  <separator name="ionic md" >
   <i name="TEBEG">      0.00010000</i>
   <i name="TEEND">      0.00010000</i>
   <i type="int" name="NBLOCK">     1</i>
   <i type="int" name="KBLOCK">  1000</i>
   <i type="int" name="NPACO">   256</i>
   <i name="APACO">     16.00000000</i>
  </separator>
  <separator name="symmetry" >
   <i type="int" name="ISYM">     0</i>
   <i name="SYMPREC">      0.00001000</i>
  </separator>
  <separator name="dos" >
   <i type="logical" name="LORBIT"> F  </i>
   <v name="RWIGS">     -1.00000000     -1.00000000</v>
   <i type="int" name="NEDOS">   301</i>
   <i name="EMIN">     10.00000000</i>
   <i name="EMAX">    -10.00000000</i>
   <i name="EFERMI">      0.00000000</i>
  </separator>
  <separator name="writing" >
   <i type="int" name="NWRITE">     2</i>
   <i type="logical" name="LWAVE"> F  </i>
   <i type="logical" name="LCHARG"> F  </i>
   <i type="logical" name="LPARD"> F  </i>
   <i type="logical" name="LVTOT"> F  </i>
   <i type="logical" name="LVHAR"> F  </i>
   <i type="logical" name="LELF"> F  </i>
   <i type="logical" name="LOPTICS"> F  </i>
   <v name="STM">      0.00000000      0.00000000      0.00000000      0.00000000      0.00000000      0.00000000      0.00000000</v>
  </separator>
  <separator name="performance" >
   <i type="int" name="NPAR">     4</i>
   <i type="int" name="NSIM">     4</i>
   <i type="int" name="NBLK">    -1</i>
   <i type="logical" name="LPLANE"> T  </i>
   <i type="logical" name="LSCALAPACK"> T  </i>
   <i type="logical" name="LSCAAWARE"> F  </i>
   <i type="logical" name="LSCALU"> F  </i>
   <i type="logical" name="LASYNC"> F  </i>
   <i type="logical" name="LORBITALREAL"> F  </i>
  </separator>
  <separator name="miscellaneous" >
   <i type="int" name="IDIOT">     3</i>
   <i type="logical" name="LMUSIC"> F  </i>
   <v name="POMASS">     16.00000000    207.20000000</v>
   <v name="DARWINR">      0.00000000      0.00000000</v>
   <v name="DARWINV">      1.00000000      1.00000000</v>
   <i type="logical" name="LCORR"> T  </i>
  </separator>
  <i type="logical" name="GGA_COMPAT"> T  </i>
  <i type="logical" name="LBERRY"> F  </i>
  <i type="int" name="ICORELEVEL">     0</i>
  <i type="logical" name="LDAU"> F  </i>
  <i type="int" name="I_CONSTRAINED_M">     0</i>
  <separator name="electronic exchange-correlation" >
   <i type="string" name="GGA">--</i>
   <i type="int" name="VOSKOWN">     0</i>
   <i type="logical" name="LHFCALC"> F  </i>
   <i type="string" name="PRECFOCK"></i>
   <i type="logical" name="LSYMGRAD"> F  </i>
   <i type="logical" name="LHFONE"> F  </i>
   <i type="logical" name="LRHFCALC"> F  </i>
   <i type="logical" name="LTHOMAS"> F  </i>
   <i type="logical" name="LMODELHF"> F  </i>
   <i name="ENCUT4O">     -1.00000000</i>
   <i type="int" name="EXXOEP">     0</i>
   <i type="int" name="FOURORBIT">     0</i>
   <i name="AEXX">      0.00000000</i>
   <i name="HFALPHA">      0.00000000</i>
   <i name="MCALPHA">      0.00000000</i>
   <i name="ALDAX">      1.00000000</i>
   <i name="AGGAX">      1.00000000</i>
   <i name="ALDAC">      1.00000000</i>
   <i name="AGGAC">      1.00000000</i>
   <i type="int" name="NKREDX">     1</i>
   <i type="int" name="NKREDY">     1</i>
   <i type="int" name="NKREDZ">     1</i>
   <i type="logical" name="SHIFTRED"> F  </i>
   <i type="logical" name="ODDONLY"> F  </i>
   <i type="logical" name="EVENONLY"> F  </i>
   <i type="int" name="LMAXFOCK">     0</i>
   <i type="int" name="NMAXFOCKAE">     0</i>
   <i type="logical" name="LFOCKAEDFT"> F  </i>
   <i name="HFSCREEN">      0.00000000</i>
   <i name="HFSCREENC">      0.00000000</i>
   <i type="int" name="NBANDSGWLOW">     0</i>
  </separator>
  <separator name="vdW DFT" >
   <i type="logical" name="LUSE_VDW"> F  </i>
   <i name="Zab_VDW">     -0.84910000</i>
   <i name="PARAM1">      0.12340000</i>
   <i name="PARAM2">      1.00000000</i>
   <i name="PARAM3">      0.00000000</i>
  </separator>
  <separator name="model GW" >
   <i type="int" name="MODEL_GW">     0</i>
   <i name="MODEL_EPS0">     14.00615048</i>
   <i name="MODEL_ALPHA">      1.00000000</i>
  </separator>
  <separator name="linear response parameters" >
   <i type="logical" name="LEPSILON"> F  </i>
   <i type="logical" name="LRPA"> F  </i>
   <i type="logical" name="LNABLA"> F  </i>
   <i type="logical" name="LVEL"> F  </i>
   <i type="int" name="KINTER">     0</i>
   <i name="CSHIFT">      0.10000000</i>
   <i name="OMEGAMAX">     -1.00000000</i>
   <i name="DEG_THRESHOLD">      0.00200000</i>
  </separator>
  <separator name="orbital magnetization" >
   <i type="logical" name="NUCIND"> F  </i>
   <v name="MAGPOS">      0.00000000      0.00000000      0.00000000</v>
   <i type="logical" name="LNICSALL"> T  </i>
   <i type="logical" name="ORBITALMAG"> F  </i>
   <i type="logical" name="LMAGBLOCH"> F  </i>
   <i type="logical" name="LCHIMAG"> F  </i>
   <i type="logical" name="LGAUGE"> T  </i>
   <i type="int" name="MAGATOM">     0</i>
   <v name="MAGDIPOL">      0.00000000      0.00000000      0.00000000</v>
   <v name="AVECCONST">      0.00000000      0.00000000      0.00000000</v>
  </separator>
  <separator name="response functions" >
   <i type="logical" name="LADDER"> F  </i>
   <i type="logical" name="LFXC"> F  </i>
   <i type="logical" name="LHARTREE"> T  </i>
   <i type="int" name="IBSE">     0</i>
   <v type="int" name="KPOINT">    -1     0     0     0</v>
   <i type="logical" name="LTCTE"> F  </i>
   <i type="logical" name="LTETE"> F  </i>
   <i type="logical" name="LTRIPLET"> F  </i>
   <i type="logical" name="LFXCEPS"> F  </i>
   <i type="logical" name="LFXHEG"> F  </i>
   <i type="int" name="NATURALO">     0</i>
   <i type="logical" name="L2ORDER"> F  </i>
   <i type="logical" name="LUSEW"> F  </i>
   <i name="ENCUTGW">     -2.00000000</i>
   <i name="ENCUTGWSOFT">     -2.00000000</i>
   <i name="ENCUTLF">     -1.00000000</i>
   <i type="int" name="LMAXMP2">    -1</i>
   <i name="SCISSOR">      0.00000000</i>
   <i type="int" name="NOMEGA">     0</i>
   <i type="int" name="NOMEGAR">     0</i>
   <i type="int" name="NBANDSGW">    -1</i>
   <i type="int" name="NBANDSO">    -1</i>
   <i type="int" name="NBANDSV">    -1</i>
   <i type="int" name="NELM">   300</i>
   <i type="int" name="NELMHF">     1</i>
   <i type="int" name="DIM">     3</i>
   <i type="int" name="ANTIRES">     0</i>
   <i name="OMEGAMAX">    -30.00000000</i>
   <i name="OMEGAMIN">    -30.00000000</i>
   <i name="OMEGATL">   -200.00000000</i>
   <i type="int" name="OMEGAGRID">     0</i>
   <i name="CSHIFT">     -0.10000000</i>
   <i type="logical" name="SELFENERGY"> F  </i>
   <i type="logical" name="LSPECTRAL"> F  </i>
   <i type="logical" name="LSPECTRALGW"> F  </i>
   <i type="logical" name="LSINGLES"> F  </i>
   <i type="logical" name="LFERMIGW"> F  </i>
   <i type="logical" name="ODDONLYGW"> F  </i>
   <i type="logical" name="EVENONLYGW"> F  </i>
   <i type="int" name="NKREDLFX">     1</i>
   <i type="int" name="NKREDLFY">     1</i>
   <i type="int" name="NKREDLFZ">     1</i>
   <i type="int" name="MAXMEM">  1800</i>
   <i type="int" name="TELESCOPE">     0</i>
   <i type="int" name="TAUPAR">     1</i>
   <i type="int" name="OMEGAPAR">    -1</i>
   <i name="LAMBDA">      1.00000000</i>
  </separator>
  <separator name="External order field" >
   <i name="OFIELD_KAPPA">      0.00000000</i>
   <v name="OFIELD_K">      0.00000000      0.00000000      0.00000000</v>
   <i name="OFIELD_Q6_NEAR">      0.00000000</i>
   <i name="OFIELD_Q6_FAR">      0.00000000</i>
   <i name="OFIELD_A">      0.00000000</i>
  </separator>
 </parameters>
 <atominfo>
  <atoms>      48 </atoms>
  <types>       2 </types>
  <array name="atoms" >
   <dimension dim="1">ion</dimension>
   <field type="string">element</field>
   <field type="int">atomtype</field>
   <set>
    <rc><c>O </c><c>   1</c></rc>
    <rc><c>O </c><c>   1</c></rc>
    <rc><c>O </c><c>   1</c></rc>
    <rc><c>O </c><c>   1</c></rc>
    <rc><c>O </c><c>   1</c></rc>
    <rc><c>O </c><c>   1</c></rc>
    <rc><c>O </c><c>   1</c></rc>
    <rc><c>O </c><c>   1</c></rc>
    <rc><c>O </c><c>   1</c></rc>
    <rc><c>O </c><c>   1</c></rc>
    <rc><c>O </c><c>   1</c></rc>
    <rc><c>O </c><c>   1</c></rc>
    <rc><c>O </c><c>   1</c></rc>
    <rc><c>O </c><c>   1</c></rc>
    <rc><c>O </c><c>   1</c></rc>
    <rc><c>O </c><c>   1</c></rc>
    <rc><c>O </c><c>   1</c></rc>
    <rc><c>O </c><c>   1</c></rc>
    <rc><c>O </c><c>   1</c></rc>
    <rc><c>O </c><c>   1</c></rc>
    <rc><c>O </c><c>   1</c></rc>
    <rc><c>O </c><c>   1</c></rc>
    <rc><c>O </c><c>   1</c></rc>
    <rc><c>O </c><c>   1</c></rc>
    <rc><c>O </c><c>   1</c></rc>
    <rc><c>O </c><c>   1</c></rc>
    <rc><c>O </c><c>   1</c></rc>
    <rc><c>O </c><c>   1</c></rc>
    <rc><c>O </c><c>   1</c></rc>
    <rc><c>O </c><c>   1</c></rc>
    <rc><c>O </c><c>   1</c></rc>
    <rc><c>O </c><c>   1</c></rc>
    <rc><c>Pb</c><c>   2</c></rc>
    <rc><c>Pb</c><c>   2</c></rc>
    <rc><c>Pb</c><c>   2</c></rc>
    <rc><c>Pb</c><c>   2</c></rc>
    <rc><c>Pb</c><c>   2</c></rc>
    <rc><c>Pb</c><c>   2</c></rc>
    <rc><c>Pb</c><c>   2</c></rc>
    <rc><c>Pb</c><c>   2</c></rc>
    <rc><c>Pb</c><c>   2</c></rc>
    <rc><c>Pb</c><c>   2</c></rc>
    <rc><c>Pb</c><c>   2</c></rc>
    <rc><c>Pb</c><c>   2</c></rc>
    <rc><c>Pb</c><c>   2</c></rc>
    <rc><c>Pb</c><c>   2</c></rc>
    <rc><c>Pb</c><c>   2</c></rc>
    <rc><c>Pb</c><c>   2</c></rc>
   </set>
  </array>
  <array name="atomtypes" >
   <dimension dim="1">type</dimension>
   <field type="int">atomspertype</field>
   <field type="string">element</field>
   <field>mass</field>
   <field>valence</field>
   <field type="string">pseudopotential</field>
   <set>
    <rc><c>  32</c><c>O </c><c>     16.00000000</c><c>      6.00000000</c><c>  PAW_PBE O 08Apr2002                   </c></rc>
    <rc><c>  16</c><c>Pb</c><c>    207.20000000</c><c>      4.00000000</c><c>  PAW_PBE Pb 08Apr2002                  </c></rc>
   </set>
  </array>
 </atominfo>
 <structure name="initialpos" >
  <crystal>
   <varray name="basis" >
    <v>       0.00000000       0.00000000       6.86122651 </v>
    <v>       4.96773739      -4.96773739       0.00000000 </v>
    <v>      16.43684247      16.43684247       0.00000000 </v>
   </varray>
   <i name="volume">   1120.49203872 </i>
   <varray name="rec_basis" >
    <v>       0.00000000       0.00000000       0.14574654 </v>
    <v>       0.10064944      -0.10064944       0.00000000 </v>
    <v>       0.03041947       0.03041947       0.00000000 </v>
   </varray>
  </crystal>
  <varray name="positions" >
   <v>       0.36591488       0.05480146       0.00000000 </v>
   <v>       0.86591488       0.05480146       0.00000000 </v>
   <v>       0.11591488       0.36214146       0.05822799 </v>
   <v>       0.61591488       0.36214146       0.05822799 </v>
   <v>       0.11591488       0.74746146       0.05822799 </v>
   <v>       0.61591488       0.74746146       0.05822799 </v>
   <v>       0.36591488       0.05480146       0.11645598 </v>
   <v>       0.86591488       0.05480146       0.11645598 </v>
   <v>       0.36591488       0.55480146       0.15111593 </v>
   <v>       0.86591488       0.55480146       0.15111593 </v>
   <v>       0.11591488       0.24746146       0.20934392 </v>
   <v>       0.61591488       0.24746146       0.20934392 </v>
   <v>       0.11591488       0.86214146       0.20934392 </v>
   <v>       0.61591488       0.86214146       0.20934392 </v>
   <v>       0.36591488       0.55480146       0.26757191 </v>
   <v>       0.86591488       0.55480146       0.26757191 </v>
   <v>       0.36591488       0.05480146       0.30223186 </v>
   <v>       0.86591488       0.05480146       0.30223186 </v>
   <v>       0.11591488       0.36214146       0.36045984 </v>
   <v>       0.61591488       0.36214146       0.36045984 </v>
   <v>       0.11591488       0.74746146       0.36045984 </v>
   <v>       0.61591488       0.74746146       0.36045984 </v>
   <v>       0.36591488       0.05480146       0.41868783 </v>
   <v>       0.86591488       0.05480146       0.41868783 </v>
   <v>       0.36591488       0.55480146       0.45334778 </v>
   <v>       0.86591488       0.55480146       0.45334778 </v>
   <v>       0.11591488       0.24746146       0.51157577 </v>
   <v>       0.61591488       0.24746146       0.51157577 </v>
   <v>       0.11591488       0.86214146       0.51157577 </v>
   <v>       0.61591488       0.86214146       0.51157577 </v>
   <v>       0.36591488       0.55480146       0.56980376 </v>
   <v>       0.86591488       0.55480146       0.56980376 </v>
   <v>       0.11591488       0.05480146       0.05822799 </v>
   <v>       0.61591488       0.05480146       0.05822799 </v>
   <v>       0.36591488       0.55480146       0.05822799 </v>
   <v>       0.86591488       0.55480146       0.05822799 </v>
   <v>       0.36591488       0.05480146       0.20934392 </v>
   <v>       0.86591488       0.05480146       0.20934392 </v>
   <v>       0.11591488       0.55480146       0.20934392 </v>
   <v>       0.61591488       0.55480146       0.20934392 </v>
   <v>       0.11591488       0.05480146       0.36045984 </v>
   <v>       0.61591488       0.05480146       0.36045984 </v>
   <v>       0.36591488       0.55480146       0.36045984 </v>
   <v>       0.86591488       0.55480146       0.36045984 </v>
   <v>       0.36591488       0.05480146       0.51157577 </v>
   <v>       0.86591488       0.05480146       0.51157577 </v>
   <v>       0.11591488       0.55480146       0.51157577 </v>
   <v>       0.61591488       0.55480146       0.51157577 </v>
  </varray>
  <varray name="selective"  type="logical" >
   <v type="logical" >  F  F  F </v>
   <v type="logical" >  F  F  F </v>
   <v type="logical" >  F  F  F </v>
   <v type="logical" >  F  F  F </v>
   <v type="logical" >  F  F  F </v>
   <v type="logical" >  F  F  F </v>
   <v type="logical" >  F  F  F </v>
   <v type="logical" >  F  F  F </v>
   <v type="logical" >  F  F  F </v>
   <v type="logical" >  F  F  F </v>
   <v type="logical" >  F  F  F </v>
   <v type="logical" >  F  F  F </v>
   <v type="logical" >  F  F  F </v>
   <v type="logical" >  F  F  F </v>
   <v type="logical" >  F  F  F </v>
   <v type="logical" >  F  F  F </v>
   <v type="logical" >  T  T  T </v>
   <v type="logical" >  T  T  T </v>
   <v type="logical" >  T  T  T </v>
   <v type="logical" >  T  T  T </v>
   <v type="logical" >  T  T  T </v>
   <v type="logical" >  T  T  T </v>
   <v type="logical" >  T  T  T </v>
   <v type="logical" >  T  T  T </v>
   <v type="logical" >  T  T  T </v>
   <v type="logical" >  T  T  T </v>
   <v type="logical" >  T  T  T </v>
   <v type="logical" >  T  T  T </v>
   <v type="logical" >  T  T  T </v>
   <v type="logical" >  T  T  T </v>
   <v type="logical" >  T  T  T </v>
   <v type="logical" >  T  T  T </v>
   <v type="logical" >  F  F  F </v>
   <v type="logical" >  F  F  F </v>
   <v type="logical" >  F  F  F </v>
   <v type="logical" >  F  F  F </v>
   <v type="logical" >  F  F  F </v>
   <v type="logical" >  F  F  F </v>
   <v type="logical" >  F  F  F </v>
   <v type="logical" >  F  F  F </v>
   <v type="logical" >  T  T  T </v>
   <v type="logical" >  T  T  T </v>
   <v type="logical" >  T  T  T </v>
   <v type="logical" >  T  T  T </v>
   <v type="logical" >  T  T  T </v>
   <v type="logical" >  T  T  T </v>
   <v type="logical" >  T  T  T </v>
   <v type="logical" >  T  T  T </v>
  </varray>
  <nose>
   <v>      -3.00000000       0.00000000       0.00010000       0.00010000 </v>
  </nose>
 </structure>
 <calculation>
  <scstep>
   <time name="dav">   13.86   13.87</time>
   <time name="total">   14.32   14.33</time>
   <energy>
    <i name="alphaZ">    252.65462290 </i>
    <i name="ewald">  27183.02885595 </i>
    <i name="hartreedc"> -41530.12858669 </i>
    <i name="XCdc">  -1178.14809268 </i>
    <i name="pawpsdc">  14281.24723002 </i>
    <i name="pawaedc"> -12195.47087739 </i>
    <i name="eentropy">     -0.01413417 </i>
    <i name="bandstr">    -20.96131322 </i>
    <i name="atom">  15387.19415778 </i>
    <i name="e_fr_energy">   2179.40186251 </i>
    <i name="e_wo_entrp">   2179.41599667 </i>
    <i name="e_0_energy">   2179.40892959 </i>
   </energy>
  </scstep>
  <scstep>
   <time name="dav">   17.45   17.45</time>
   <time name="total">   17.45   17.45</time>
   <energy>
    <i name="e_fr_energy">     27.69613385 </i>
    <i name="e_wo_entrp">     27.69745925 </i>
    <i name="e_0_energy">     27.69679655 </i>
   </energy>
  </scstep>
  <scstep>
   <time name="dav">   15.84   15.84</time>
   <time name="total">   15.84   15.85</time>
   <energy>
    <i name="e_fr_energy">   -279.68624697 </i>
    <i name="e_wo_entrp">   -279.67949222 </i>
    <i name="e_0_energy">   -279.68286960 </i>
   </energy>
  </scstep>
  <scstep>
   <time name="dav">   15.82   15.83</time>
   <time name="total">   15.83   15.83</time>
   <energy>
    <i name="e_fr_energy">   -286.97432332 </i>
    <i name="e_wo_entrp">   -286.96715439 </i>
    <i name="e_0_energy">   -286.97073886 </i>
   </energy>
  </scstep>
  <scstep>
   <time name="dav">   17.06   17.06</time>
   <time name="total">   17.65   17.66</time>
   <energy>
    <i name="e_fr_energy">   -287.19327183 </i>
    <i name="e_wo_entrp">   -287.18609517 </i>
    <i name="e_0_energy">   -287.18968350 </i>
   </energy>
  </scstep>
  <scstep>
   <time name="diag">    2.60    2.60</time>
   <time name="diis">    8.92    8.92</time>
   <time name="orth">    0.40    0.40</time>
   <time name="total">   12.97   12.98</time>
   <energy>
    <i name="e_fr_energy">   -155.57483139 </i>
    <i name="e_wo_entrp">   -155.55998290 </i>
    <i name="e_0_energy">   -155.56740715 </i>
   </energy>
  </scstep>
  <scstep>
   <time name="diag">    2.60    2.60</time>
   <time name="diis">    8.93    8.93</time>
   <time name="orth">    0.40    0.40</time>
   <time name="total">   12.98   12.99</time>
   <energy>
    <i name="e_fr_energy">   -172.54495016 </i>
    <i name="e_wo_entrp">   -172.51018132 </i>
    <i name="e_0_energy">   -172.52756574 </i>
   </energy>
  </scstep>
  <scstep>
   <time name="diag">    2.59    2.60</time>
   <time name="diis">    8.94    8.94</time>
   <time name="orth">    0.40    0.40</time>
   <time name="total">   12.97   12.98</time>
   <energy>
    <i name="e_fr_energy">   -168.13943467 </i>
    <i name="e_wo_entrp">   -168.11937289 </i>
    <i name="e_0_energy">   -168.12940378 </i>
   </energy>
  </scstep>
  <scstep>
   <time name="diag">    2.59    2.60</time>
   <time name="diis">    9.01    9.02</time>
   <time name="orth">    0.40    0.40</time>
   <time name="total">   13.06   13.06</time>
   <energy>
    <i name="e_fr_energy">   -166.51839017 </i>
    <i name="e_wo_entrp">   -166.49630552 </i>
    <i name="e_0_energy">   -166.50734785 </i>
   </energy>
  </scstep>
  <scstep>
   <time name="diag">    2.60    2.60</time>
   <time name="diis">    8.93    8.94</time>
   <time name="orth">    0.40    0.40</time>
   <time name="total">   12.98   12.98</time>
   <energy>
    <i name="e_fr_energy">   -180.02021704 </i>
    <i name="e_wo_entrp">   -180.00365324 </i>
    <i name="e_0_energy">   -180.01193514 </i>
   </energy>
  </scstep>
  <scstep>
   <time name="diag">    2.59    2.59</time>
   <time name="diis">    8.93    8.93</time>
   <time name="orth">    0.40    0.40</time>
   <time name="total">   12.96   12.97</time>
   <energy>
    <i name="e_fr_energy">   -187.04657636 </i>
    <i name="e_wo_entrp">   -187.03406769 </i>
    <i name="e_0_energy">   -187.04032203 </i>
   </energy>
  </scstep>
  <scstep>
   <time name="diag">    2.59    2.59</time>
   <time name="diis">    8.92    8.92</time>
   <time name="orth">    0.40    0.40</time>
   <time name="total">   12.96   12.96</time>
   <energy>
    <i name="e_fr_energy">   -198.13619120 </i>
    <i name="e_wo_entrp">   -198.12742397 </i>
    <i name="e_0_energy">   -198.13180759 </i>
   </energy>
  </scstep>
  <scstep>
   <time name="diag">    2.59    2.59</time>
   <time name="diis">    8.91    8.92</time>
   <time name="orth">    0.40    0.40</time>
   <time name="total">   12.95   12.95</time>
   <energy>
    <i name="e_fr_energy">   -218.39471858 </i>
    <i name="e_wo_entrp">   -218.38206099 </i>
    <i name="e_0_energy">   -218.38838979 </i>
   </energy>
  </scstep>
  <scstep>
   <time name="diag">    2.59    2.59</time>
   <time name="diis">    8.90    8.91</time>
   <time name="orth">    0.40    0.40</time>
   <time name="total">   12.94   12.94</time>
   <energy>
    <i name="e_fr_energy">   -230.78173417 </i>
    <i name="e_wo_entrp">   -230.76671073 </i>
    <i name="e_0_energy">   -230.77422245 </i>
   </energy>
  </scstep>
  <scstep>
   <time name="diag">    2.59    2.59</time>
   <time name="diis">    8.91    8.91</time>
   <time name="orth">    0.40    0.40</time>
   <time name="total">   12.94   12.94</time>
   <energy>
    <i name="e_fr_energy">   -241.39741026 </i>
    <i name="e_wo_entrp">   -241.38771985 </i>
    <i name="e_0_energy">   -241.39256505 </i>
   </energy>
  </scstep>
  <scstep>
   <time name="diag">    2.59    2.59</time>
   <time name="diis">    8.91    8.91</time>
   <time name="orth">    0.40    0.40</time>
   <time name="total">   12.94   12.95</time>
   <energy>
    <i name="e_fr_energy">   -249.27025330 </i>
    <i name="e_wo_entrp">   -249.25285089 </i>
    <i name="e_0_energy">   -249.26155210 </i>
   </energy>
  </scstep>
  <scstep>
   <time name="diag">    2.59    2.59</time>
   <time name="diis">    8.91    8.91</time>
   <time name="orth">    0.40    0.40</time>
   <time name="total">   12.94   12.94</time>
   <energy>
    <i name="e_fr_energy">   -250.48877615 </i>
    <i name="e_wo_entrp">   -250.47039677 </i>
    <i name="e_0_energy">   -250.47958646 </i>
   </energy>
  </scstep>
  <scstep>
   <time name="diag">    2.59    2.59</time>
   <time name="diis">    8.92    8.93</time>
   <time name="orth">    0.40    0.40</time>
   <time name="total">   12.96   12.96</time>
   <energy>
    <i name="e_fr_energy">   -250.66744898 </i>
    <i name="e_wo_entrp">   -250.65897375 </i>
    <i name="e_0_energy">   -250.66321136 </i>
   </energy>
  </scstep>
  <scstep>
   <time name="diag">    2.60    2.60</time>
   <time name="diis">    8.90    8.91</time>
   <time name="orth">    0.40    0.40</time>
   <time name="total">   12.94   12.95</time>
   <energy>
    <i name="e_fr_energy">   -250.72399985 </i>
    <i name="e_wo_entrp">   -250.71665633 </i>
    <i name="e_0_energy">   -250.72032809 </i>
   </energy>
  </scstep>
  <scstep>
   <time name="diag">    2.59    2.59</time>
   <time name="diis">    8.91    8.92</time>
   <time name="orth">    0.40    0.40</time>
   <time name="total">   12.96   12.96</time>
   <energy>
    <i name="e_fr_energy">   -250.75376727 </i>
    <i name="e_wo_entrp">   -250.74644325 </i>
    <i name="e_0_energy">   -250.75010526 </i>
   </energy>
  </scstep>
  <scstep>
   <time name="diag">    2.59    2.59</time>
   <time name="diis">    8.94    8.94</time>
   <time name="orth">    0.40    0.40</time>
   <time name="total">   12.97   12.97</time>
   <energy>
    <i name="e_fr_energy">   -250.78662196 </i>
    <i name="e_wo_entrp">   -250.77694866 </i>
    <i name="e_0_energy">   -250.78178531 </i>
   </energy>
  </scstep>
  <scstep>
   <time name="diag">    2.60    2.60</time>
   <time name="diis">    8.98    8.98</time>
   <time name="orth">    0.40    0.40</time>
   <time name="total">   13.01   13.02</time>
   <energy>
    <i name="e_fr_energy">   -250.82098416 </i>
    <i name="e_wo_entrp">   -250.81110653 </i>
    <i name="e_0_energy">   -250.81604534 </i>
   </energy>
  </scstep>
  <scstep>
   <time name="diag">    2.59    2.59</time>
   <time name="diis">    8.94    8.94</time>
   <time name="orth">    0.40    0.40</time>
   <time name="total">   12.96   12.97</time>
   <energy>
    <i name="e_fr_energy">   -250.84875183 </i>
    <i name="e_wo_entrp">   -250.83807568 </i>
    <i name="e_0_energy">   -250.84341376 </i>
   </energy>
  </scstep>
  <scstep>
   <time name="diag">    2.59    2.59</time>
   <time name="diis">    8.40    8.40</time>
   <time name="orth">    0.40    0.40</time>
   <time name="total">   12.43   12.44</time>
   <energy>
    <i name="e_fr_energy">   -250.88471182 </i>
    <i name="e_wo_entrp">   -250.87400386 </i>
    <i name="e_0_energy">   -250.87935784 </i>
   </energy>
  </scstep>
  <scstep>
   <time name="diag">    2.59    2.59</time>
   <time name="diis">    6.55    6.55</time>
   <time name="orth">    0.40    0.40</time>
   <time name="total">   10.58   10.58</time>
   <energy>
    <i name="e_fr_energy">   -250.88448244 </i>
    <i name="e_wo_entrp">   -250.87377601 </i>
    <i name="e_0_energy">   -250.87912923 </i>
   </energy>
  </scstep>
  <scstep>
   <time name="diag">    2.60    2.60</time>
   <time name="diis">    6.34    6.34</time>
   <time name="orth">    0.40    0.40</time>
   <time name="total">   10.39   10.39</time>
   <energy>
    <i name="e_fr_energy">   -250.89038836 </i>
    <i name="e_wo_entrp">   -250.87962984 </i>
    <i name="e_0_energy">   -250.88500910 </i>
   </energy>
  </scstep>
  <scstep>
   <time name="diag">    2.59    2.59</time>
   <time name="diis">    8.03    8.04</time>
   <time name="orth">    0.40    0.40</time>
   <time name="total">   12.08   12.08</time>
   <energy>
    <i name="e_fr_energy">   -250.92202969 </i>
    <i name="e_wo_entrp">   -250.91121749 </i>
    <i name="e_0_energy">   -250.91662359 </i>
   </energy>
  </scstep>
  <scstep>
   <time name="diag">    2.59    2.60</time>
   <time name="diis">    8.32    8.32</time>
   <time name="orth">    0.40    0.40</time>
   <time name="total">   12.36   12.37</time>
   <energy>
    <i name="e_fr_energy">   -250.97207736 </i>
    <i name="e_wo_entrp">   -250.96115413 </i>
    <i name="e_0_energy">   -250.96661575 </i>
   </energy>
  </scstep>
  <scstep>
   <time name="diag">    2.59    2.59</time>
   <time name="diis">    7.53    7.54</time>
   <time name="orth">    0.40    0.40</time>
   <time name="total">   11.57   11.58</time>
   <energy>
    <i name="e_fr_energy">   -250.99143645 </i>
    <i name="e_wo_entrp">   -250.98035181 </i>
    <i name="e_0_energy">   -250.98589413 </i>
   </energy>
  </scstep>
  <scstep>
   <time name="diag">    2.60    2.60</time>
   <time name="diis">    6.65    6.65</time>
   <time name="orth">    0.40    0.40</time>
   <time name="total">   10.70   10.71</time>
   <energy>
    <i name="e_fr_energy">   -251.00282284 </i>
    <i name="e_wo_entrp">   -250.99169831 </i>
    <i name="e_0_energy">   -250.99726057 </i>
   </energy>
  </scstep>
  <scstep>
   <time name="diag">    2.60    2.60</time>
   <time name="diis">    7.76    7.76</time>
   <time name="orth">    0.40    0.40</time>
   <time name="total">   11.80   11.81</time>
   <energy>
    <i name="e_fr_energy">   -251.04083409 </i>
    <i name="e_wo_entrp">   -251.02970765 </i>
    <i name="e_0_energy">   -251.03527087 </i>
   </energy>
  </scstep>
  <scstep>
   <time name="diag">    2.59    2.60</time>
   <time name="diis">    7.28    7.29</time>
   <time name="orth">    0.40    0.40</time>
   <time name="total">   11.33   11.33</time>
   <energy>
    <i name="e_fr_energy">   -251.05687780 </i>
    <i name="e_wo_entrp">   -251.04568269 </i>
    <i name="e_0_energy">   -251.05128024 </i>
   </energy>
  </scstep>
  <scstep>
   <time name="diag">    2.59    2.59</time>
   <time name="diis">    7.03    7.04</time>
   <time name="orth">    0.40    0.40</time>
   <time name="total">   11.07   11.08</time>
   <energy>
    <i name="e_fr_energy">   -251.07501088 </i>
    <i name="e_wo_entrp">   -251.06382058 </i>
    <i name="e_0_energy">   -251.06941573 </i>
   </energy>
  </scstep>
  <scstep>
   <time name="diag">    2.60    2.60</time>
   <time name="diis">    6.14    6.14</time>
   <time name="orth">    0.40    0.40</time>
   <time name="total">   10.18   10.19</time>
   <energy>
    <i name="e_fr_energy">   -251.07702008 </i>
    <i name="e_wo_entrp">   -251.06585636 </i>
    <i name="e_0_energy">   -251.07143822 </i>
   </energy>
  </scstep>
  <scstep>
   <time name="diag">    2.59    2.59</time>
   <time name="diis">    6.27    6.27</time>
   <time name="orth">    0.40    0.40</time>
   <time name="total">   10.30   10.31</time>
   <energy>
    <i name="e_fr_energy">   -251.08501730 </i>
    <i name="e_wo_entrp">   -251.07387780 </i>
    <i name="e_0_energy">   -251.07944755 </i>
   </energy>
  </scstep>
  <scstep>
   <time name="diag">    2.59    2.59</time>
   <time name="diis">    6.63    6.63</time>
   <time name="orth">    0.40    0.40</time>
   <time name="total">   10.67   10.68</time>
   <energy>
    <i name="e_fr_energy">   -251.09689006 </i>
    <i name="e_wo_entrp">   -251.08577134 </i>
    <i name="e_0_energy">   -251.09133070 </i>
   </energy>
  </scstep>
  <scstep>
   <time name="diag">    2.59    2.59</time>
   <time name="diis">    6.10    6.10</time>
   <time name="orth">    0.40    0.40</time>
   <time name="total">   10.14   10.14</time>
   <energy>
    <i name="e_fr_energy">   -251.09955905 </i>
    <i name="e_wo_entrp">   -251.08842629 </i>
    <i name="e_0_energy">   -251.09399267 </i>
   </energy>
  </scstep>
  <scstep>
   <time name="diag">    2.60    2.60</time>
   <time name="diis">    5.69    5.69</time>
   <time name="orth">    0.40    0.40</time>
   <time name="total">    9.74    9.75</time>
   <energy>
    <i name="e_fr_energy">   -251.10035744 </i>
    <i name="e_wo_entrp">   -251.08919704 </i>
    <i name="e_0_energy">   -251.09477724 </i>
   </energy>
  </scstep>
  <scstep>
   <time name="diag">    2.59    2.59</time>
   <time name="diis">    5.14    5.14</time>
   <time name="orth">    0.40    0.40</time>
   <time name="total">    9.18    9.19</time>
   <energy>
    <i name="e_fr_energy">   -251.10077491 </i>
    <i name="e_wo_entrp">   -251.08960492 </i>
    <i name="e_0_energy">   -251.09518992 </i>
   </energy>
  </scstep>
  <scstep>
   <time name="diag">    2.59    2.59</time>
   <time name="diis">    4.89    4.90</time>
   <time name="orth">    0.40    0.40</time>
   <time name="total">    8.93    8.94</time>
   <energy>
    <i name="e_fr_energy">   -251.10088158 </i>
    <i name="e_wo_entrp">   -251.08971438 </i>
    <i name="e_0_energy">   -251.09529798 </i>
   </energy>
  </scstep>
  <scstep>
   <time name="diag">    2.59    2.59</time>
   <time name="diis">    4.78    4.78</time>
   <time name="orth">    0.40    0.40</time>
   <time name="total">    8.21    8.22</time>
   <energy>
    <i name="alphaZ">    252.65462290 </i>
    <i name="ewald">  27183.02885595 </i>
    <i name="hartreedc"> -42170.03705729 </i>
    <i name="XCdc">  -1139.56128171 </i>
    <i name="pawpsdc">  25967.29128798 </i>
    <i name="pawaedc"> -23898.67581818 </i>
    <i name="eentropy">     -0.01116716 </i>
    <i name="bandstr">  -1832.98452816 </i>
    <i name="atom">  15387.19415778 </i>
    <i name="e_fr_energy">   -251.10092790 </i>
    <i name="e_wo_entrp">   -251.08976073 </i>
    <i name="e_0_energy">   -251.09534431 </i>
   </energy>
  </scstep>
  <structure>
   <crystal>
    <varray name="basis" >
     <v>       0.00000000       0.00000000       6.86122651 </v>
     <v>       4.96773739      -4.96773739       0.00000000 </v>
     <v>      16.43684247      16.43684247       0.00000000 </v>
    </varray>
    <i name="volume">   1120.49203872 </i>
    <varray name="rec_basis" >
     <v>       0.00000000       0.00000000       0.14574654 </v>
     <v>       0.10064944      -0.10064944       0.00000000 </v>
     <v>       0.03041947       0.03041947       0.00000000 </v>
    </varray>
   </crystal>
   <varray name="positions" >
    <v>       0.36591488       0.05480146       0.00000000 </v>
    <v>       0.86591488       0.05480146       0.00000000 </v>
    <v>       0.11591488       0.36214146       0.05822799 </v>
    <v>       0.61591488       0.36214146       0.05822799 </v>
    <v>       0.11591488       0.74746146       0.05822799 </v>
    <v>       0.61591488       0.74746146       0.05822799 </v>
    <v>       0.36591488       0.05480146       0.11645598 </v>
    <v>       0.86591488       0.05480146       0.11645598 </v>
    <v>       0.36591488       0.55480146       0.15111593 </v>
    <v>       0.86591488       0.55480146       0.15111593 </v>
    <v>       0.11591488       0.24746146       0.20934392 </v>
    <v>       0.61591488       0.24746146       0.20934392 </v>
    <v>       0.11591488       0.86214146       0.20934392 </v>
    <v>       0.61591488       0.86214146       0.20934392 </v>
    <v>       0.36591488       0.55480146       0.26757191 </v>
    <v>       0.86591488       0.55480146       0.26757191 </v>
    <v>       0.36591488       0.05480146       0.30223186 </v>
    <v>       0.86591488       0.05480146       0.30223186 </v>
    <v>       0.11591488       0.36214146       0.36045984 </v>
    <v>       0.61591488       0.36214146       0.36045984 </v>
    <v>       0.11591488       0.74746146       0.36045984 </v>
    <v>       0.61591488       0.74746146       0.36045984 </v>
    <v>       0.36591488       0.05480146       0.41868783 </v>
    <v>       0.86591488       0.05480146       0.41868783 </v>
    <v>       0.36591488       0.55480146       0.45334778 </v>
    <v>       0.86591488       0.55480146       0.45334778 </v>
    <v>       0.11591488       0.24746146       0.51157577 </v>
    <v>       0.61591488       0.24746146       0.51157577 </v>
    <v>       0.11591488       0.86214146       0.51157577 </v>
    <v>       0.61591488       0.86214146       0.51157577 </v>
    <v>       0.36591488       0.55480146       0.56980376 </v>
    <v>       0.86591488       0.55480146       0.56980376 </v>
    <v>       0.11591488       0.05480146       0.05822799 </v>
    <v>       0.61591488       0.05480146       0.05822799 </v>
    <v>       0.36591488       0.55480146       0.05822799 </v>
    <v>       0.86591488       0.55480146       0.05822799 </v>
    <v>       0.36591488       0.05480146       0.20934392 </v>
    <v>       0.86591488       0.05480146       0.20934392 </v>
    <v>       0.11591488       0.55480146       0.20934392 </v>
    <v>       0.61591488       0.55480146       0.20934392 </v>
    <v>       0.11591488       0.05480146       0.36045984 </v>
    <v>       0.61591488       0.05480146       0.36045984 </v>
    <v>       0.36591488       0.55480146       0.36045984 </v>
    <v>       0.86591488       0.55480146       0.36045984 </v>
    <v>       0.36591488       0.05480146       0.51157577 </v>
    <v>       0.86591488       0.05480146       0.51157577 </v>
    <v>       0.11591488       0.55480146       0.51157577 </v>
    <v>       0.61591488       0.55480146       0.51157577 </v>
   </varray>
  </structure>
  <varray name="forces" >
   <v>       0.08479301       0.08481355       0.00117883 </v>
   <v>       0.08504498       0.08506968       0.00117922 </v>
   <v>       0.28922415      -1.04861248       0.00239105 </v>
   <v>       0.28924547      -1.04862101       0.00259399 </v>
   <v>      -1.04684111       0.28778569       0.00113409 </v>
   <v>      -1.04683503       0.28777860       0.00133938 </v>
   <v>       0.39020833       0.38970069      -0.00026319 </v>
   <v>       0.38989717       0.38939106      -0.00026144 </v>
   <v>      -0.34967805      -0.35021625       0.00084034 </v>
   <v>      -0.34966479      -0.35020323       0.00084045 </v>
   <v>       0.06114023      -0.11587285       0.00256507 </v>
   <v>       0.06114266      -0.11587771       0.00282359 </v>
   <v>      -0.11265726       0.05906422       0.00226757 </v>
   <v>      -0.11265648       0.05905946       0.00252653 </v>
   <v>      -0.01911384      -0.02009362       0.00120205 </v>
   <v>      -0.01904308      -0.02002354       0.00120304 </v>
   <v>       0.02169750       0.02381758      -0.00195014 </v>
   <v>       0.02178750       0.02390744      -0.00195037 </v>
   <v>      -0.05946176       0.11393208       0.00590166 </v>
   <v>      -0.05946281       0.11392956       0.00551384 </v>
   <v>       0.11519044      -0.06145388       0.00405566 </v>
   <v>       0.11518649      -0.06145151       0.00366863 </v>
   <v>       0.35069522       0.35291385      -0.00151721 </v>
   <v>       0.35081153       0.35302770      -0.00151308 </v>
   <v>      -0.38855708      -0.38638024      -0.00149037 </v>
   <v>      -0.38944163      -0.38725966      -0.00149116 </v>
   <v>      -0.28271186       1.04915142       0.00543015 </v>
   <v>      -0.28271123       1.04915557       0.00431199 </v>
   <v>       1.05181487      -0.28308489       0.00626717 </v>
   <v>       1.05180427      -0.28307621       0.00514978 </v>
   <v>      -0.08342926      -0.08192833      -0.00272957 </v>
   <v>      -0.08401899      -0.08251471      -0.00272561 </v>
   <v>      -0.88286074      -0.87822067       0.00222521 </v>
   <v>      -0.88285321      -0.87823035       0.00247659 </v>
   <v>       0.77486660       0.77102077      -0.00942793 </v>
   <v>       0.77485950       0.77101277      -0.00942993 </v>
   <v>       0.03104452       0.02472599      -0.00794856 </v>
   <v>       0.03102058       0.02470385      -0.00794497 </v>
   <v>       0.20509083       0.20768397      -0.01110291 </v>
   <v>       0.20508907       0.20768631      -0.01108934 </v>
   <v>      -0.20614543      -0.20454429       0.00452346 </v>
   <v>      -0.20614535      -0.20454531       0.00445863 </v>
   <v>      -0.04327339      -0.04144361      -0.00468352 </v>
   <v>      -0.04323848      -0.04140802      -0.00468550 </v>
   <v>      -0.77888238      -0.77139304      -0.00314291 </v>
   <v>      -0.77880347      -0.77131577      -0.00314085 </v>
   <v>       0.87840548       0.87923115       0.00454741 </v>
   <v>       0.87842633       0.87920820       0.00587318 </v>
  </varray>
  <varray name="stress" >
   <v>      37.25045015     -12.87802580      -0.00064631 </v>
   <v>     -12.87802601      37.27124904      -0.02660002 </v>
   <v>      -0.00064656      -0.02660007      17.13778230 </v>
  </varray>
  <energy>
   <i name="e_fr_energy">   -259.72624902 </i>
   <i name="e_wo_entrp">   -259.72066544 </i>
   <i name="e_0_energy">     -0.01116716 </i>
  </energy>
  <time name="totalsc">  524.42  524.67</time>
 </calculation>
 <calculation>
  <scstep>
   <time name="dav">   14.64   14.65</time>
   <time name="total">   15.68   15.69</time>
   <energy>
    <i name="alphaZ">    252.65462290 </i>
    <i name="ewald">  27168.69219726 </i>
    <i name="hartreedc"> -42155.26508070 </i>
    <i name="XCdc">  -1139.54331117 </i>
    <i name="pawpsdc">  25967.28648370 </i>
    <i name="pawaedc"> -23898.67087664 </i>
    <i name="eentropy">     -0.01051136 </i>
    <i name="bandstr">  -1833.53401015 </i>
    <i name="atom">  15387.19415778 </i>
    <i name="e_fr_energy">   -251.19632838 </i>
    <i name="e_wo_entrp">   -251.18581703 </i>
    <i name="e_0_energy">   -251.19107271 </i>
   </energy>
  </scstep>
  <scstep>
   <time name="diag">    2.59    2.59</time>
   <time name="diis">    8.84    8.84</time>
   <time name="orth">    0.40    0.40</time>
   <time name="total">   12.87   12.87</time>
   <energy>
    <i name="e_fr_energy">   -251.22011258 </i>
    <i name="e_wo_entrp">   -251.21082255 </i>
    <i name="e_0_energy">   -251.21546756 </i>
   </energy>
  </scstep>
  <scstep>
   <time name="diag">    2.59    2.59</time>
   <time name="diis">    8.75    8.75</time>
   <time name="orth">    0.40    0.41</time>
   <time name="total">   12.78   12.79</time>
   <energy>
    <i name="e_fr_energy">   -251.22914082 </i>
    <i name="e_wo_entrp">   -251.21965392 </i>
    <i name="e_0_energy">   -251.22439737 </i>
   </energy>
  </scstep>
  <scstep>
   <time name="diag">    2.59    2.59</time>
   <time name="diis">    8.69    8.69</time>
   <time name="orth">    0.40    0.40</time>
   <time name="total">   12.72   12.72</time>
   <energy>
    <i name="e_fr_energy">   -251.20234155 </i>
    <i name="e_wo_entrp">   -251.19218884 </i>
    <i name="e_0_energy">   -251.19726519 </i>
   </energy>
  </scstep>
  <scstep>
   <time name="diag">    2.59    2.59</time>
   <time name="diis">    7.88    7.88</time>
   <time name="orth">    0.40    0.41</time>
   <time name="total">   11.91   11.91</time>
   <energy>
    <i name="e_fr_energy">   -251.20240529 </i>
    <i name="e_wo_entrp">   -251.19156409 </i>
    <i name="e_0_energy">   -251.19698469 </i>
   </energy>
  </scstep>
  <scstep>
   <time name="diag">    2.59    2.59</time>
   <time name="diis">    6.80    6.80</time>
   <time name="orth">    0.40    0.40</time>
   <time name="total">   10.83   10.83</time>
   <energy>
    <i name="e_fr_energy">   -251.20262228 </i>
    <i name="e_wo_entrp">   -251.19184736 </i>
    <i name="e_0_energy">   -251.19723482 </i>
   </energy>
  </scstep>
  <scstep>
   <time name="diag">    2.59    2.59</time>
   <time name="diis">    6.16    6.16</time>
   <time name="orth">    0.40    0.40</time>
   <time name="total">   10.18   10.19</time>
   <energy>
    <i name="e_fr_energy">   -251.20277379 </i>
    <i name="e_wo_entrp">   -251.19194817 </i>
    <i name="e_0_energy">   -251.19736098 </i>
   </energy>
  </scstep>
  <scstep>
   <time name="diag">    2.58    2.59</time>
   <time name="diis">    5.89    5.89</time>
   <time name="orth">    0.40    0.40</time>
   <time name="total">    9.91    9.92</time>
   <energy>
    <i name="e_fr_energy">   -251.20262748 </i>
    <i name="e_wo_entrp">   -251.19170185 </i>
    <i name="e_0_energy">   -251.19716467 </i>
   </energy>
  </scstep>
  <scstep>
   <time name="diag">    2.59    2.59</time>
   <time name="diis">    5.51    5.51</time>
   <time name="orth">    0.40    0.40</time>
   <time name="total">    8.95    8.95</time>
   <energy>
    <i name="alphaZ">    252.65462290 </i>
    <i name="ewald">  27168.69219726 </i>
    <i name="hartreedc"> -42154.73084618 </i>
    <i name="XCdc">  -1139.51366609 </i>
    <i name="pawpsdc">  25976.78394555 </i>
    <i name="pawaedc"> -23908.19518666 </i>
    <i name="eentropy">     -0.01090078 </i>
    <i name="bandstr">  -1834.07702900 </i>
    <i name="atom">  15387.19415778 </i>
    <i name="e_fr_energy">   -251.20270523 </i>
    <i name="e_wo_entrp">   -251.19180445 </i>
    <i name="e_0_energy">   -251.19725484 </i>
   </energy>
  </scstep>
  <structure>
   <crystal>
    <varray name="basis" >
     <v>       0.00000000       0.00000000       6.86122651 </v>
     <v>       4.96773739      -4.96773739       0.00000000 </v>
     <v>      16.43684247      16.43684247       0.00000000 </v>
    </varray>
    <i name="volume">   1120.49203872 </i>
    <varray name="rec_basis" >
     <v>       0.00000000       0.00000000       0.14574654 </v>
     <v>       0.10064944      -0.10064944       0.00000000 </v>
     <v>       0.03041947       0.03041947       0.00000000 </v>
    </varray>
   </crystal>
   <varray name="positions" >
    <v>       0.36591488       0.05480146       0.00000000 </v>
    <v>       0.86591488       0.05480146       0.00000000 </v>
    <v>       0.11591488       0.36214146       0.05822799 </v>
    <v>       0.61591488       0.36214146       0.05822799 </v>
    <v>       0.11591488       0.74746146       0.05822799 </v>
    <v>       0.61591488       0.74746146       0.05822799 </v>
    <v>       0.36591488       0.05480146       0.11645598 </v>
    <v>       0.86591488       0.05480146       0.11645598 </v>
    <v>       0.36591488       0.55480146       0.15111593 </v>
    <v>       0.86591488       0.55480146       0.15111593 </v>
    <v>       0.11591488       0.24746146       0.20934392 </v>
    <v>       0.61591488       0.24746146       0.20934392 </v>
    <v>       0.11591488       0.86214146       0.20934392 </v>
    <v>       0.61591488       0.86214146       0.20934392 </v>
    <v>       0.36591488       0.55480146       0.26757191 </v>
    <v>       0.86591488       0.55480146       0.26757191 </v>
    <v>       0.36591214       0.05479941       0.30224521 </v>
    <v>       0.86591214       0.05479941       0.30224527 </v>
    <v>       0.11592318       0.36197308       0.36047583 </v>
    <v>       0.61592264       0.36197308       0.36047583 </v>
    <v>       0.11592058       0.74763301       0.36047562 </v>
    <v>       0.61592004       0.74763300       0.36047562 </v>
    <v>       0.36591275       0.05479931       0.41889434 </v>
    <v>       0.86591275       0.05479931       0.41889441 </v>
    <v>       0.36591279       0.55479935       0.45312034 </v>
    <v>       0.86591278       0.55479935       0.45311982 </v>
    <v>       0.11592252       0.24616807       0.51180072 </v>
    <v>       0.61592094       0.24616806       0.51180073 </v>
    <v>       0.11592369       0.86343781       0.51180140 </v>
    <v>       0.61592212       0.86343779       0.51180140 </v>
    <v>       0.36591104       0.55480001       0.56975523 </v>
    <v>       0.86591105       0.55480000       0.56975488 </v>
    <v>       0.11591488       0.05480146       0.05822799 </v>
    <v>       0.61591488       0.05480146       0.05822799 </v>
    <v>       0.36591488       0.55480146       0.05822799 </v>
    <v>       0.86591488       0.55480146       0.05822799 </v>
    <v>       0.36591488       0.05480146       0.20934392 </v>
    <v>       0.86591488       0.05480146       0.20934392 </v>
    <v>       0.11591488       0.55480146       0.20934392 </v>
    <v>       0.61591488       0.55480146       0.20934392 </v>
    <v>       0.11592124       0.05479991       0.36033931 </v>
    <v>       0.61592115       0.05479991       0.36033931 </v>
    <v>       0.36590830       0.55479969       0.36043498 </v>
    <v>       0.86590829       0.55479969       0.36043500 </v>
    <v>       0.36591046       0.05479419       0.51112076 </v>
    <v>       0.86591046       0.05479419       0.51112081 </v>
    <v>       0.11592128       0.55480066       0.51209164 </v>
    <v>       0.61592314       0.55480070       0.51209164 </v>
   </varray>
  </structure>
  <varray name="forces" >
   <v>       0.08205852       0.08262068       0.00167385 </v>
   <v>       0.08097761       0.08154016       0.00167347 </v>
   <v>       0.28716589      -1.04724773       0.00300243 </v>
   <v>       0.28716730      -1.04724767       0.00298007 </v>
   <v>      -1.04601234       0.28625411       0.00174743 </v>
   <v>      -1.04600982       0.28625367       0.00172691 </v>
   <v>       0.38864444       0.38867856       0.00023461 </v>
   <v>       0.38903314       0.38906923       0.00023422 </v>
   <v>      -0.35016806      -0.35016811       0.00133815 </v>
   <v>      -0.35023925      -0.35023871       0.00133786 </v>
   <v>       0.05839092      -0.11379251       0.00322821 </v>
   <v>       0.05839001      -0.11379045       0.00312838 </v>
   <v>      -0.11112662       0.05684251       0.00293283 </v>
   <v>      -0.11112745       0.05684370       0.00283266 </v>
   <v>      -0.02636618      -0.02679412       0.00174472 </v>
   <v>      -0.02653400      -0.02696123       0.00174449 </v>
   <v>       0.00861126       0.01111736      -0.00095110 </v>
   <v>       0.00846701       0.01097220      -0.00095358 </v>
   <v>      -0.07092894       0.10160149       0.00468853 </v>
   <v>      -0.07092720       0.10160134       0.00526319 </v>
   <v>       0.10256425      -0.07137955       0.00442892 </v>
   <v>       0.10256530      -0.07137810       0.00500411 </v>
   <v>       0.19367071       0.19610710      -0.00022334 </v>
   <v>       0.19337004       0.19580761      -0.00021954 </v>
   <v>      -0.26244412      -0.26079847      -0.00103973 </v>
   <v>      -0.26013109      -0.25849169      -0.00104615 </v>
   <v>      -0.13340967       0.87967201       0.00561264 </v>
   <v>      -0.13340401       0.87966584       0.00429059 </v>
   <v>       0.87934978      -0.13312847       0.00447496 </v>
   <v>       0.87935306      -0.13313333       0.00315062 </v>
   <v>      -0.03413791      -0.03223810      -0.00099872 </v>
   <v>      -0.05193101      -0.05002422      -0.00099840 </v>
   <v>      -0.88064945      -0.87547820       0.00338548 </v>
   <v>      -0.88064891      -0.87547871       0.00231065 </v>
   <v>       0.77154532       0.76823907      -0.00893271 </v>
   <v>       0.77153191       0.76822552      -0.00893293 </v>
   <v>       0.02802439       0.02225406      -0.00745156 </v>
   <v>       0.02802105       0.02225067      -0.00745161 </v>
   <v>       0.20513100       0.20825041      -0.01065470 </v>
   <v>       0.20513173       0.20824939      -0.01055884 </v>
   <v>      -0.14814843      -0.14988796      -0.00062675 </v>
   <v>      -0.14814841      -0.14988737      -0.00019937 </v>
   <v>      -0.02591236      -0.02317167      -0.00356444 </v>
   <v>      -0.02666131      -0.02392176      -0.00356552 </v>
   <v>      -0.64269825      -0.64127822       0.00152168 </v>
   <v>      -0.64230481      -0.64088519       0.00152161 </v>
   <v>       0.73545851       0.73234073      -0.01665575 </v>
   <v>       0.73544644       0.73234410       0.00781149 </v>
  </varray>
  <varray name="stress" >
   <v>      37.41817312     -12.24970028       0.00115776 </v>
   <v>     -12.24970029      37.39636392      -0.00771937 </v>
   <v>       0.00115780      -0.00771949      16.96244912 </v>
  </varray>
  <energy>
   <i name="e_fr_energy">   -259.82708768 </i>
   <i name="e_wo_entrp">   -259.82163729 </i>
   <i name="e_0_energy">     -0.01090078 </i>
  </energy>
  <time name="totalsc">  124.10  124.17</time>
 </calculation>
 <calculation>
  <scstep>
   <time name="dav">   13.92   13.92</time>
   <time name="total">   14.96   14.97</time>
   <energy>
    <i name="alphaZ">    252.65462290 </i>
    <i name="ewald">  27126.24178288 </i>
    <i name="hartreedc"> -42110.60897274 </i>
    <i name="XCdc">  -1139.46779147 </i>
    <i name="pawpsdc">  25976.79701066 </i>
    <i name="pawaedc"> -23908.20828479 </i>
    <i name="eentropy">     -0.00911681 </i>
    <i name="bandstr">  -1835.90821545 </i>
    <i name="atom">  15387.19415778 </i>
    <i name="e_fr_energy">   -251.31480704 </i>
    <i name="e_wo_entrp">   -251.30569023 </i>
    <i name="e_0_energy">   -251.31024864 </i>
   </energy>
  </scstep>
  <scstep>
   <time name="diag">    2.59    2.59</time>
   <time name="diis">    8.85    8.86</time>
   <time name="orth">    0.40    0.41</time>
   <time name="total">   12.88   12.89</time>
   <energy>
    <i name="e_fr_energy">   -251.40832532 </i>
    <i name="e_wo_entrp">   -251.39891089 </i>
    <i name="e_0_energy">   -251.40361810 </i>
   </energy>
  </scstep>
  <scstep>
   <time name="diag">    2.59    2.59</time>
   <time name="diis">    8.83    8.84</time>
   <time name="orth">    0.40    0.40</time>
   <time name="total">   12.87   12.87</time>
   <energy>
    <i name="e_fr_energy">   -251.51193516 </i>
    <i name="e_wo_entrp">   -251.49925559 </i>
    <i name="e_0_energy">   -251.50559538 </i>
   </energy>
  </scstep>
  <scstep>
   <time name="diag">    2.59    2.59</time>
   <time name="diis">    8.81    8.82</time>
   <time name="orth">    0.40    0.40</time>
   <time name="total">   12.84   12.85</time>
   <energy>
    <i name="e_fr_energy">   -251.38050777 </i>
    <i name="e_wo_entrp">   -251.37249999 </i>
    <i name="e_0_energy">   -251.37650388 </i>
   </energy>
  </scstep>
  <scstep>
   <time name="diag">    2.59    2.59</time>
   <time name="diis">    8.68    8.69</time>
   <time name="orth">    0.41    0.41</time>
   <time name="total">   12.71   12.72</time>
   <energy>
    <i name="e_fr_energy">   -251.37713502 </i>
    <i name="e_wo_entrp">   -251.36933782 </i>
    <i name="e_0_energy">   -251.37323642 </i>
   </energy>
  </scstep>
  <scstep>
   <time name="diag">    2.59    2.59</time>
   <time name="diis">    8.68    8.68</time>
   <time name="orth">    0.40    0.41</time>
   <time name="total">   12.71   12.71</time>
   <energy>
    <i name="e_fr_energy">   -251.36979237 </i>
    <i name="e_wo_entrp">   -251.36021870 </i>
    <i name="e_0_energy">   -251.36500554 </i>
   </energy>
  </scstep>
  <scstep>
   <time name="diag">    2.59    2.59</time>
   <time name="diis">    8.36    8.37</time>
   <time name="orth">    0.41    0.41</time>
   <time name="total">   12.40   12.40</time>
   <energy>
    <i name="e_fr_energy">   -251.37090147 </i>
    <i name="e_wo_entrp">   -251.36171243 </i>
    <i name="e_0_energy">   -251.36630695 </i>
   </energy>
  </scstep>
  <scstep>
   <time name="diag">    2.60    2.60</time>
   <time name="diis">    8.22    8.22</time>
   <time name="orth">    0.40    0.41</time>
   <time name="total">   12.26   12.26</time>
   <energy>
    <i name="e_fr_energy">   -251.37084421 </i>
    <i name="e_wo_entrp">   -251.36099401 </i>
    <i name="e_0_energy">   -251.36591911 </i>
   </energy>
  </scstep>
  <scstep>
   <time name="diag">    2.59    2.59</time>
   <time name="diis">    6.31    6.31</time>
   <time name="orth">    0.41    0.41</time>
   <time name="total">   10.34   10.35</time>
   <energy>
    <i name="e_fr_energy">   -251.37096282 </i>
    <i name="e_wo_entrp">   -251.36135395 </i>
    <i name="e_0_energy">   -251.36615838 </i>
   </energy>
  </scstep>
  <scstep>
   <time name="diag">    2.59    2.59</time>
   <time name="diis">    6.00    6.00</time>
   <time name="orth">    0.41    0.41</time>
   <time name="total">    9.44    9.45</time>
   <energy>
    <i name="alphaZ">    252.65462290 </i>
    <i name="ewald">  27126.24178288 </i>
    <i name="hartreedc"> -42109.34340141 </i>
    <i name="XCdc">  -1139.36238430 </i>
    <i name="pawpsdc">  26038.65343318 </i>
    <i name="pawaedc"> -23970.16619222 </i>
    <i name="eentropy">     -0.00959257 </i>
    <i name="bandstr">  -1837.23341116 </i>
    <i name="atom">  15387.19415778 </i>
    <i name="e_fr_energy">   -251.37098493 </i>
    <i name="e_wo_entrp">   -251.36139235 </i>
    <i name="e_0_energy">   -251.36618864 </i>
   </energy>
  </scstep>
  <structure>
   <crystal>
    <varray name="basis" >
     <v>       0.00000000       0.00000000       6.86122651 </v>
     <v>       4.96773739      -4.96773739       0.00000000 </v>
     <v>      16.43684247      16.43684247       0.00000000 </v>
    </varray>
    <i name="volume">   1120.49203872 </i>
    <varray name="rec_basis" >
     <v>       0.00000000       0.00000000       0.14574654 </v>
     <v>       0.10064944      -0.10064944       0.00000000 </v>
     <v>       0.03041947       0.03041947       0.00000000 </v>
    </varray>
   </crystal>
   <varray name="positions" >
    <v>       0.36591488       0.05480146       0.00000000 </v>
    <v>       0.86591488       0.05480146       0.00000000 </v>
    <v>       0.11591488       0.36214146       0.05822799 </v>
    <v>       0.61591488       0.36214146       0.05822799 </v>
    <v>       0.11591488       0.74746146       0.05822799 </v>
    <v>       0.61591488       0.74746146       0.05822799 </v>
    <v>       0.36591488       0.05480146       0.11645598 </v>
    <v>       0.86591488       0.05480146       0.11645598 </v>
    <v>       0.36591488       0.55480146       0.15111593 </v>
    <v>       0.86591488       0.55480146       0.15111593 </v>
    <v>       0.11591488       0.24746146       0.20934392 </v>
    <v>       0.61591488       0.24746146       0.20934392 </v>
    <v>       0.11591488       0.86214146       0.20934392 </v>
    <v>       0.61591488       0.86214146       0.20934392 </v>
    <v>       0.36591488       0.55480146       0.26757191 </v>
    <v>       0.86591488       0.55480146       0.26757191 </v>
    <v>       0.36590391       0.05479323       0.30228529 </v>
    <v>       0.86590391       0.05479323       0.30228550 </v>
    <v>       0.11594808       0.36146792       0.36052379 </v>
    <v>       0.61594590       0.36146793       0.36052379 </v>
    <v>       0.11593769       0.74814763       0.36052293 </v>
    <v>       0.61593552       0.74814761       0.36052293 </v>
    <v>       0.36590635       0.05479285       0.41951388 </v>
    <v>       0.86590637       0.05479286       0.41951415 </v>
    <v>       0.36590650       0.55479301       0.45243800 </v>
    <v>       0.86590649       0.55479299       0.45243593 </v>
    <v>       0.11594543       0.24228787       0.51247558 </v>
    <v>       0.61593914       0.24228786       0.51247559 </v>
    <v>       0.11595013       0.86732685       0.51247827 </v>
    <v>       0.61594385       0.86732678       0.51247827 </v>
    <v>       0.36589953       0.55479563       0.56960963 </v>
    <v>       0.86589955       0.55479562       0.56960825 </v>
    <v>       0.11591488       0.05480146       0.05822799 </v>
    <v>       0.61591488       0.05480146       0.05822799 </v>
    <v>       0.36591488       0.55480146       0.05822799 </v>
    <v>       0.86591488       0.55480146       0.05822799 </v>
    <v>       0.36591488       0.05480146       0.20934392 </v>
    <v>       0.86591488       0.05480146       0.20934392 </v>
    <v>       0.11591488       0.55480146       0.20934392 </v>
    <v>       0.61591488       0.55480146       0.20934392 </v>
    <v>       0.11594033       0.05479524       0.35997769 </v>
    <v>       0.61593996       0.05479525       0.35997769 </v>
    <v>       0.36588854       0.55479436       0.36036039 </v>
    <v>       0.86588853       0.55479435       0.36036047 </v>
    <v>       0.36589720       0.05477237       0.50975573 </v>
    <v>       0.86589721       0.05477238       0.50975591 </v>
    <v>       0.11594046       0.55479826       0.51363926 </v>
    <v>       0.61594792       0.55479843       0.51363926 </v>
   </varray>
  </structure>
  <varray name="forces" >
   <v>       0.07041231       0.07092500       0.00217615 </v>
   <v>       0.08225594       0.08275665       0.00217586 </v>
   <v>       0.28860152      -1.04134217       0.00380405 </v>
   <v>       0.28860130      -1.04133937       0.00321578 </v>
   <v>      -1.04006629       0.28765196       0.00254971 </v>
   <v>      -1.04006384       0.28765120       0.00196390 </v>
   <v>       0.39510559       0.39509520       0.00074461 </v>
   <v>       0.39345880       0.39344501       0.00073739 </v>
   <v>      -0.34312189      -0.34315846       0.00184928 </v>
   <v>      -0.34297784      -0.34301510       0.00184790 </v>
   <v>       0.05842765      -0.10319394       0.00348125 </v>
   <v>       0.05842536      -0.10319403       0.00381618 </v>
   <v>      -0.10052448       0.05680443       0.00318823 </v>
   <v>      -0.10052481       0.05680609       0.00352224 </v>
   <v>      -0.03962240      -0.04005452       0.00238739 </v>
   <v>      -0.03979390      -0.04022403       0.00238496 </v>
   <v>      -0.02758677      -0.02551533       0.00187798 </v>
   <v>      -0.02772664      -0.02565463       0.00188168 </v>
   <v>      -0.09861998       0.06658723       0.00062699 </v>
   <v>      -0.09861849       0.06658452       0.00179728 </v>
   <v>       0.06665007      -0.09864120       0.00174457 </v>
   <v>       0.06665186      -0.09864285       0.00291149 </v>
   <v>      -0.34193455      -0.33802920      -0.00071898 </v>
   <v>      -0.34242452      -0.33852101      -0.00071256 </v>
   <v>       0.10670583       0.10768210       0.00144422 </v>
   <v>       0.11224585       0.11322648       0.00144668 </v>
   <v>       0.33370929       0.36140974       0.00141520 </v>
   <v>       0.33371450       0.36140160       0.00056629 </v>
   <v>       0.35832601       0.33883389       0.00077541 </v>
   <v>       0.35833404       0.33882359      -0.00007001 </v>
   <v>       0.12048431       0.12208574       0.00163637 </v>
   <v>       0.09788328       0.09950157       0.00160786 </v>
   <v>      -0.87527587      -0.87014350      -0.00399396 </v>
   <v>      -0.87527464      -0.87014442       0.01070977 </v>
   <v>       0.76389670       0.76054857      -0.00842374 </v>
   <v>       0.76375017       0.76040211      -0.00842408 </v>
   <v>       0.01529447       0.00950442      -0.00694592 </v>
   <v>       0.01599933       0.01020889      -0.00694590 </v>
   <v>       0.20373015       0.20676464      -0.01045084 </v>
   <v>       0.20373100       0.20676357      -0.00978250 </v>
   <v>       0.00254479      -0.00363368      -0.00964129 </v>
   <v>       0.00254420      -0.00363034      -0.00886913 </v>
   <v>       0.02249596       0.02385765       0.00097047 </v>
   <v>       0.02057192       0.02193377       0.00097239 </v>
   <v>      -0.19946145      -0.20694926      -0.00021380 </v>
   <v>      -0.19921455      -0.20670181      -0.00021974 </v>
   <v>       0.26414288       0.26722587      -0.01299378 </v>
   <v>       0.26413781       0.26724739       0.01617672 </v>
  </varray>
  <varray name="stress" >
   <v>      38.18214483     -10.17904489       0.02268557 </v>
   <v>     -10.17904500      38.14416779      -0.02691514 </v>
   <v>       0.02268551      -0.02691517      17.38349496 </v>
  </varray>
  <energy>
   <i name="e_fr_energy">   -259.99252798 </i>
   <i name="e_wo_entrp">   -259.98773169 </i>
   <i name="e_0_energy">     -0.00959257 </i>
  </energy>
  <time name="totalsc">  141.62  141.69</time>
 </calculation>
 <calculation>
  <scstep>
   <time name="dav">   14.56   14.57</time>
   <time name="total">   15.61   15.61</time>
   <energy>
    <i name="alphaZ">    252.65462290 </i>
    <i name="ewald">  27114.33270265 </i>
    <i name="hartreedc"> -42096.85160731 </i>
    <i name="XCdc">  -1139.34959258 </i>
    <i name="pawpsdc">  26038.61749415 </i>
    <i name="pawaedc"> -23970.13027219 </i>
    <i name="eentropy">     -0.00930967 </i>
    <i name="bandstr">  -1837.83356818 </i>
    <i name="atom">  15387.19415778 </i>
    <i name="e_fr_energy">   -251.37537246 </i>
    <i name="e_wo_entrp">   -251.36606279 </i>
    <i name="e_0_energy">   -251.37071762 </i>
   </energy>
  </scstep>
  <scstep>
   <time name="diag">    2.59    2.59</time>
   <time name="diis">    8.82    8.83</time>
   <time name="orth">    0.41    0.41</time>
   <time name="total">   12.85   12.86</time>
   <energy>
    <i name="e_fr_energy">   -251.38452272 </i>
    <i name="e_wo_entrp">   -251.37612415 </i>
    <i name="e_0_energy">   -251.38032344 </i>
   </energy>
  </scstep>
  <scstep>
   <time name="diag">    2.59    2.59</time>
   <time name="diis">    8.79    8.79</time>
   <time name="orth">    0.41    0.41</time>
   <time name="total">   12.82   12.83</time>
   <energy>
    <i name="e_fr_energy">   -251.40420529 </i>
    <i name="e_wo_entrp">   -251.39528040 </i>
    <i name="e_0_energy">   -251.39974284 </i>
   </energy>
  </scstep>
  <scstep>
   <time name="diag">    2.59    2.59</time>
   <time name="diis">    8.62    8.62</time>
   <time name="orth">    0.41    0.41</time>
   <time name="total">   12.65   12.66</time>
   <energy>
    <i name="e_fr_energy">   -251.38472143 </i>
    <i name="e_wo_entrp">   -251.37650084 </i>
    <i name="e_0_energy">   -251.38061113 </i>
   </energy>
  </scstep>
  <scstep>
   <time name="diag">    2.59    2.59</time>
   <time name="diis">    7.97    7.97</time>
   <time name="orth">    0.41    0.41</time>
   <time name="total">   12.00   12.01</time>
   <energy>
    <i name="e_fr_energy">   -251.37974019 </i>
    <i name="e_wo_entrp">   -251.37077952 </i>
    <i name="e_0_energy">   -251.37525986 </i>
   </energy>
  </scstep>
  <scstep>
   <time name="diag">    2.59    2.59</time>
   <time name="diis">    8.03    8.03</time>
   <time name="orth">    0.40    0.41</time>
   <time name="total">   12.06   12.06</time>
   <energy>
    <i name="e_fr_energy">   -251.37976183 </i>
    <i name="e_wo_entrp">   -251.37038179 </i>
    <i name="e_0_energy">   -251.37507181 </i>
   </energy>
  </scstep>
  <scstep>
   <time name="diag">    2.59    2.59</time>
   <time name="diis">    6.35    6.36</time>
   <time name="orth">    0.41    0.41</time>
   <time name="total">    9.79    9.80</time>
   <energy>
    <i name="alphaZ">    252.65462290 </i>
    <i name="ewald">  27114.33270265 </i>
    <i name="hartreedc"> -42096.93400870 </i>
    <i name="XCdc">  -1139.31805343 </i>
    <i name="pawpsdc">  26062.69663394 </i>
    <i name="pawaedc"> -23994.24012246 </i>
    <i name="eentropy">     -0.00925441 </i>
    <i name="bandstr">  -1837.75644149 </i>
    <i name="atom">  15387.19415778 </i>
    <i name="e_fr_energy">   -251.37976323 </i>
    <i name="e_wo_entrp">   -251.37050882 </i>
    <i name="e_0_energy">   -251.37513602 </i>
   </energy>
  </scstep>
  <structure>
   <crystal>
    <varray name="basis" >
     <v>       0.00000000       0.00000000       6.86122651 </v>
     <v>       4.96773739      -4.96773739       0.00000000 </v>
     <v>      16.43684247      16.43684247       0.00000000 </v>
    </varray>
    <i name="volume">   1120.49203872 </i>
    <varray name="rec_basis" >
     <v>       0.00000000       0.00000000       0.14574654 </v>
     <v>       0.10064944      -0.10064944       0.00000000 </v>
     <v>       0.03041947       0.03041947       0.00000000 </v>
    </varray>
   </crystal>
   <varray name="positions" >
    <v>       0.36591488       0.05480146       0.00000000 </v>
    <v>       0.86591488       0.05480146       0.00000000 </v>
    <v>       0.11591488       0.36214146       0.05822799 </v>
    <v>       0.61591488       0.36214146       0.05822799 </v>
    <v>       0.11591488       0.74746146       0.05822799 </v>
    <v>       0.61591488       0.74746146       0.05822799 </v>
    <v>       0.36591488       0.05480146       0.11645598 </v>
    <v>       0.86591488       0.05480146       0.11645598 </v>
    <v>       0.36591488       0.55480146       0.15111593 </v>
    <v>       0.86591488       0.55480146       0.15111593 </v>
    <v>       0.11591488       0.24746146       0.20934392 </v>
    <v>       0.61591488       0.24746146       0.20934392 </v>
    <v>       0.11591488       0.86214146       0.20934392 </v>
    <v>       0.61591488       0.86214146       0.20934392 </v>
    <v>       0.36591488       0.55480146       0.26757191 </v>
    <v>       0.86591488       0.55480146       0.26757191 </v>
    <v>       0.36590157       0.05479147       0.30229668 </v>
    <v>       0.86590157       0.05479147       0.30229693 </v>
    <v>       0.11595515       0.36132438       0.36053742 </v>
    <v>       0.61595251       0.36132439       0.36053742 </v>
    <v>       0.11594256       0.74829386       0.36053638 </v>
    <v>       0.61593991       0.74829383       0.36053637 </v>
    <v>       0.36590453       0.05479101       0.41968991 </v>
    <v>       0.86590456       0.05479102       0.41969024 </v>
    <v>       0.36590471       0.55479121       0.45224412 </v>
    <v>       0.86590471       0.55479118       0.45224160 </v>
    <v>       0.11595193       0.24118536       0.51266734 </v>
    <v>       0.61594430       0.24118534       0.51266734 </v>
    <v>       0.11595765       0.86843188       0.51267060 </v>
    <v>       0.61595002       0.86843179       0.51267059 </v>
    <v>       0.36589626       0.55479439       0.56956826 </v>
    <v>       0.86589628       0.55479438       0.56956658 </v>
    <v>       0.11591488       0.05480146       0.05822799 </v>
    <v>       0.61591488       0.05480146       0.05822799 </v>
    <v>       0.36591488       0.55480146       0.05822799 </v>
    <v>       0.86591488       0.55480146       0.05822799 </v>
    <v>       0.36591488       0.05480146       0.20934392 </v>
    <v>       0.86591488       0.05480146       0.20934392 </v>
    <v>       0.11591488       0.55480146       0.20934392 </v>
    <v>       0.61591488       0.55480146       0.20934392 </v>
    <v>       0.11594575       0.05479392       0.35987494 </v>
    <v>       0.61594531       0.05479392       0.35987494 </v>
    <v>       0.36588292       0.55479284       0.36033919 </v>
    <v>       0.86588291       0.55479284       0.36033929 </v>
    <v>       0.36589344       0.05476617       0.50936787 </v>
    <v>       0.86589345       0.05476618       0.50936809 </v>
    <v>       0.11594591       0.55479757       0.51407900 </v>
    <v>       0.61595496       0.55479778       0.51407900 </v>
   </varray>
  </structure>
  <varray name="forces" >
   <v>       0.07822459       0.07872240       0.00177311 </v>
   <v>       0.06732062       0.06782102       0.00176630 </v>
   <v>       0.28846419      -1.04183571       0.00325330 </v>
   <v>       0.28846620      -1.04183341       0.00296293 </v>
   <v>      -1.04055549       0.28751488       0.00199879 </v>
   <v>      -1.04055945       0.28751533       0.00171185 </v>
   <v>       0.39324780       0.39323842       0.00033422 </v>
   <v>       0.39632406       0.39630572       0.00033351 </v>
   <v>      -0.34142975      -0.34146312       0.00144151 </v>
   <v>      -0.34190620      -0.34194314       0.00144335 </v>
   <v>       0.05862301      -0.10043495       0.00362749 </v>
   <v>       0.05862177      -0.10044224       0.00283340 </v>
   <v>      -0.09777920       0.05699307       0.00333435 </v>
   <v>      -0.09777935       0.05699059       0.00254373 </v>
   <v>      -0.04250264      -0.04293052       0.00201331 </v>
   <v>      -0.04271354      -0.04313612       0.00201927 </v>
   <v>      -0.03701425      -0.03505797       0.00216173 </v>
   <v>      -0.03688643      -0.03533413       0.00194369 </v>
   <v>      -0.10530170       0.05961463      -0.00065695 </v>
   <v>      -0.10529663       0.05961771      -0.00020589 </v>
   <v>       0.05862264      -0.10450144       0.00138122 </v>
   <v>       0.05863106      -0.10450066       0.00183124 </v>
   <v>      -0.50684757      -0.50379397       0.00127029 </v>
   <v>      -0.50654919      -0.50396528       0.00130558 </v>
   <v>       0.21109266       0.21298900       0.00178621 </v>
   <v>       0.21216267       0.21405940       0.00179076 </v>
   <v>       0.47045196       0.21729212      -0.00031160 </v>
   <v>       0.47045082       0.21728760       0.00056340 </v>
   <v>       0.21090461       0.47671085      -0.00065195 </v>
   <v>       0.21056973       0.47667571       0.00005238 </v>
   <v>       0.15717702       0.15911644       0.00210325 </v>
   <v>       0.15622394       0.15815735       0.00209453 </v>
   <v>      -0.87442766      -0.86929626       0.00755558 </v>
   <v>      -0.87442772      -0.86929853      -0.00165349 </v>
   <v>       0.76171382       0.75836650      -0.00882878 </v>
   <v>       0.76138977       0.75804143      -0.00883040 </v>
   <v>       0.01071053       0.00492463      -0.00735166 </v>
   <v>       0.00952296       0.00373657      -0.00735158 </v>
   <v>       0.20172733       0.20474722      -0.01005289 </v>
   <v>       0.20172272       0.20474808      -0.01099983 </v>
   <v>       0.04182020       0.03461243      -0.00401493 </v>
   <v>       0.04181944       0.03461724      -0.00414797 </v>
   <v>       0.02582244       0.02681165       0.00261477 </v>
   <v>       0.02531274       0.02630165       0.00261706 </v>
   <v>      -0.05019303      -0.06537545       0.00103354 </v>
   <v>      -0.05014518      -0.06533002       0.00102726 </v>
   <v>       0.13259196       0.13846344      -0.00073153 </v>
   <v>       0.13258169       0.13847981      -0.00073346 </v>
  </varray>
  <varray name="stress" >
   <v>      38.46475573      -9.52519056       0.00459450 </v>
   <v>      -9.52519055      38.43074963      -0.03544386 </v>
   <v>       0.00459470      -0.03544356      17.67060369 </v>
  </varray>
  <energy>
   <i name="e_fr_energy">   -260.00049229 </i>
   <i name="e_wo_entrp">   -259.99586508 </i>
   <i name="e_0_energy">     -0.00925441 </i>
  </energy>
  <time name="totalsc">  106.04  106.11</time>
 </calculation>
 <calculation>
  <scstep>
   <time name="dav">   14.35   14.37</time>
   <time name="total">   15.38   15.40</time>
   <energy>
    <i name="alphaZ">    252.65462290 </i>
    <i name="ewald">  27076.89292635 </i>
    <i name="hartreedc"> -42059.29960880 </i>
    <i name="XCdc">  -1139.31793151 </i>
    <i name="pawpsdc">  26063.86916221 </i>
    <i name="pawaedc"> -23995.41488010 </i>
    <i name="eentropy">     -0.00936487 </i>
    <i name="bandstr">  -1837.98409931 </i>
    <i name="atom">  15387.19415778 </i>
[...]
       <r>   -19.8362     0.0000     0.0000 </r>
       <r>   -19.7334     0.0000     0.0000 </r>
       <r>   -19.6306     0.0000     0.0000 </r>
       <r>   -19.5277     0.0000     0.0000 </r>
       <r>   -19.4249     0.0347     0.0036 </r>
       <r>   -19.3221     0.9083     0.0970 </r>
       <r>   -19.2193     2.4562     0.3495 </r>
       <r>   -19.1165     4.6095     0.8234 </r>
       <r>   -19.0136     6.1536     1.4561 </r>
       <r>   -18.9108     3.9304     1.8603 </r>
       <r>   -18.8080     6.4254     2.5209 </r>
       <r>   -18.7052     8.4673     3.3915 </r>
       <r>   -18.6024     9.0309     4.3201 </r>
       <r>   -18.4995    11.9469     5.5484 </r>
       <r>   -18.3967     9.5928     6.5348 </r>
       <r>   -18.2939    13.1059     7.8823 </r>
       <r>   -18.1911     9.6938     8.8790 </r>
       <r>   -18.0883    14.7913    10.3998 </r>
       <r>   -17.9854    15.2144    11.9642 </r>
       <r>   -17.8826    14.7675    13.4825 </r>
       <r>   -17.7798    11.0918    14.6230 </r>
       <r>   -17.6770     9.0117    15.5495 </r>
       <r>   -17.5742    15.3985    17.1328 </r>
       <r>   -17.4714    10.2335    18.1850 </r>
       <r>   -17.3685    13.8694    19.6110 </r>
       <r>   -17.2657    20.5573    21.7247 </r>
       <r>   -17.1629    21.3448    23.9194 </r>
       <r>   -17.0601    16.5557    25.6216 </r>
       <r>   -16.9573    16.6955    27.3382 </r>
       <r>   -16.8544     6.3967    27.9959 </r>
       <r>   -16.7516     1.9654    28.1980 </r>
       <r>   -16.6488     4.7426    28.6856 </r>
       <r>   -16.5460     6.7131    29.3758 </r>
       <r>   -16.4432     5.5906    29.9507 </r>
       <r>   -16.3403     3.9923    30.3611 </r>
       <r>   -16.2375     4.6397    30.8382 </r>
       <r>   -16.1347     7.8533    31.6457 </r>
       <r>   -16.0319     2.7133    31.9246 </r>
       <r>   -15.9291     0.7325    32.0000 </r>
       <r>   -15.8263     0.0004    32.0000 </r>
       <r>   -15.7234     0.0000    32.0000 </r>
       <r>   -15.6206     0.0000    32.0000 </r>
       <r>   -15.5178     0.0000    32.0000 </r>
       <r>   -15.4150     0.0000    32.0000 </r>
       <r>   -15.3122     0.0000    32.0000 </r>
       <r>   -15.2093     0.0000    32.0000 </r>
       <r>   -15.1065     0.0000    32.0000 </r>
       <r>   -15.0037     0.0000    32.0000 </r>
       <r>   -14.9009     0.0000    32.0000 </r>
       <r>   -14.7981     0.0000    32.0000 </r>
       <r>   -14.6952     0.0000    32.0000 </r>
       <r>   -14.5924     0.0000    32.0000 </r>
       <r>   -14.4896     0.0000    32.0000 </r>
       <r>   -14.3868     0.0000    32.0000 </r>
       <r>   -14.2840     0.0000    32.0000 </r>
       <r>   -14.1811     0.0000    32.0000 </r>
       <r>   -14.0783     0.0000    32.0000 </r>
       <r>   -13.9755     0.0000    32.0000 </r>
       <r>   -13.8727     0.0000    32.0000 </r>
       <r>   -13.7699     0.0000    32.0000 </r>
       <r>   -13.6671     0.0000    32.0000 </r>
       <r>   -13.5642     0.0000    32.0000 </r>
       <r>   -13.4614     0.0000    32.0000 </r>
       <r>   -13.3586     0.0000    32.0000 </r>
       <r>   -13.2558     0.0000    32.0000 </r>
       <r>   -13.1530     0.0000    32.0000 </r>
       <r>   -13.0501     0.0000    32.0000 </r>
       <r>   -12.9473     0.0000    32.0000 </r>
       <r>   -12.8445     0.0000    32.0000 </r>
       <r>   -12.7417     0.0000    32.0000 </r>
       <r>   -12.6389     0.0000    32.0000 </r>
       <r>   -12.5360     0.0000    32.0000 </r>
       <r>   -12.4332     0.0000    32.0000 </r>
       <r>   -12.3304     0.0000    32.0000 </r>
       <r>   -12.2276     0.0000    32.0000 </r>
       <r>   -12.1248     0.0000    32.0000 </r>
       <r>   -12.0220     0.0000    32.0000 </r>
       <r>   -11.9191     0.0000    32.0000 </r>
       <r>   -11.8163     0.0000    32.0000 </r>
       <r>   -11.7135     0.0000    32.0000 </r>
       <r>   -11.6107     0.0000    32.0000 </r>
       <r>   -11.5079     0.0000    32.0000 </r>
       <r>   -11.4050     0.0000    32.0000 </r>
       <r>   -11.3022     0.0000    32.0000 </r>
       <r>   -11.1994     0.0000    32.0000 </r>
       <r>   -11.0966     0.0000    32.0000 </r>
       <r>   -10.9938     0.0000    32.0000 </r>
       <r>   -10.8909     0.0000    32.0000 </r>
       <r>   -10.7881     0.0000    32.0000 </r>
       <r>   -10.6853     0.0000    32.0000 </r>
       <r>   -10.5825     0.0000    32.0000 </r>
       <r>   -10.4797     0.0000    32.0000 </r>
       <r>   -10.3768     0.0000    32.0000 </r>
       <r>   -10.2740     0.0000    32.0000 </r>
       <r>   -10.1712     0.0000    32.0000 </r>
       <r>   -10.0684     0.0000    32.0000 </r>
       <r>    -9.9656     0.0000    32.0000 </r>
       <r>    -9.8628     0.0000    32.0000 </r>
       <r>    -9.7599     0.0000    32.0000 </r>
       <r>    -9.6571     0.0000    32.0000 </r>
       <r>    -9.5543     0.0000    32.0000 </r>
       <r>    -9.4515     0.0006    32.0001 </r>
       <r>    -9.3487     0.9671    32.0995 </r>
       <r>    -9.2458     4.2961    32.5412 </r>
       <r>    -9.1430     3.6979    32.9214 </r>
       <r>    -9.0402     7.0434    33.6456 </r>
       <r>    -8.9374     9.2913    34.6010 </r>
       <r>    -8.8346     8.4618    35.4710 </r>
       <r>    -8.7317     3.5056    35.8314 </r>
       <r>    -8.6289     7.8380    36.6373 </r>
       <r>    -8.5261    11.2521    37.7943 </r>
       <r>    -8.4233    12.1912    39.0477 </r>
       <r>    -8.3205     3.4884    39.4064 </r>
       <r>    -8.2177     5.6428    39.9866 </r>
       <r>    -8.1148     4.0035    40.3982 </r>
       <r>    -8.0120     8.8028    41.3033 </r>
       <r>    -7.9092     5.8281    41.9026 </r>
       <r>    -7.8064     3.1400    42.2254 </r>
       <r>    -7.7036     4.4803    42.6861 </r>
       <r>    -7.6007     4.8527    43.1850 </r>
       <r>    -7.4979     3.5826    43.5534 </r>
       <r>    -7.3951    12.1499    44.8026 </r>
       <r>    -7.2923     1.5863    44.9657 </r>
       <r>    -7.1895     3.1729    45.2920 </r>
       <r>    -7.0866     1.8931    45.4866 </r>
       <r>    -6.9838     2.8268    45.7773 </r>
       <r>    -6.8810     0.9641    45.8764 </r>
       <r>    -6.7782     3.4918    46.2354 </r>
       <r>    -6.6754     0.9518    46.3333 </r>
       <r>    -6.5725     0.0492    46.3383 </r>
       <r>    -6.4697     2.4464    46.5899 </r>
       <r>    -6.3669     1.0598    46.6988 </r>
       <r>    -6.2641     5.4483    47.2590 </r>
       <r>    -6.1613     0.7226    47.3333 </r>
       <r>    -6.0585     0.0001    47.3333 </r>
       <r>    -5.9556     0.0586    47.3394 </r>
       <r>    -5.8528     2.3588    47.5819 </r>
       <r>    -5.7500     4.1314    48.0067 </r>
       <r>    -5.6472     2.3919    48.2526 </r>
       <r>    -5.5444     4.5005    48.7154 </r>
       <r>    -5.4415     9.0272    49.6435 </r>
       <r>    -5.3387     6.9672    50.3599 </r>
       <r>    -5.2359    13.3494    51.7325 </r>
       <r>    -5.1331     9.4934    52.7086 </r>
       <r>    -5.0303     8.0669    53.5380 </r>
       <r>    -4.9274    11.5532    54.7259 </r>
       <r>    -4.8246    10.1932    55.7739 </r>
       <r>    -4.7218    10.8960    56.8942 </r>
       <r>    -4.6190    17.2928    58.6723 </r>
       <r>    -4.5162    11.7367    59.8790 </r>
       <r>    -4.4134    14.2642    61.3457 </r>
       <r>    -4.3105    15.8149    62.9717 </r>
       <r>    -4.2077    18.1386    64.8367 </r>
       <r>    -4.1049    16.0585    66.4878 </r>
       <r>    -4.0021    14.7972    68.0093 </r>
       <r>    -3.8993    12.1863    69.2623 </r>
       <r>    -3.7964    11.6610    70.4612 </r>
       <r>    -3.6936    20.8379    72.6038 </r>
       <r>    -3.5908    19.3451    74.5928 </r>
       <r>    -3.4880    14.5175    76.0855 </r>
       <r>    -3.3852    11.7247    77.2910 </r>
       <r>    -3.2823    15.0461    78.8380 </r>
       <r>    -3.1795    15.1340    80.3941 </r>
       <r>    -3.0767    12.8991    81.7204 </r>
       <r>    -2.9739    15.4928    83.3133 </r>
       <r>    -2.8711    13.1552    84.6659 </r>
       <r>    -2.7683    11.8086    85.8801 </r>
       <r>    -2.6654    13.2234    87.2397 </r>
       <r>    -2.5626    23.8160    89.6884 </r>
       <r>    -2.4598    24.2587    92.1827 </r>
       <r>    -2.3570    18.0406    94.0376 </r>
       <r>    -2.2542    23.2684    96.4300 </r>
       <r>    -2.1513    31.1924    99.6372 </r>
       <r>    -2.0485    36.6049   103.4009 </r>
       <r>    -1.9457    31.1390   106.6025 </r>
       <r>    -1.8429    32.6284   109.9574 </r>
       <r>    -1.7401    30.6449   113.1082 </r>
       <r>    -1.6372    32.3174   116.4311 </r>
       <r>    -1.5344    23.4977   118.8471 </r>
       <r>    -1.4316     9.8267   119.8575 </r>
       <r>    -1.3288    18.0914   121.7176 </r>
       <r>    -1.2260    21.2627   123.9038 </r>
       <r>    -1.1231    20.2212   125.9829 </r>
       <r>    -1.0203    13.3313   127.3536 </r>
       <r>    -0.9175     6.7099   128.0435 </r>
       <r>    -0.8147     0.8192   128.1278 </r>
       <r>    -0.7119     1.0040   128.2310 </r>
       <r>    -0.6091     1.8697   128.4232 </r>
       <r>    -0.5062     0.5251   128.4772 </r>
       <r>    -0.4034     3.4374   128.8307 </r>
       <r>    -0.3006     3.8958   129.2312 </r>
       <r>    -0.1978     3.1609   129.5562 </r>
       <r>    -0.0950     1.0741   129.6667 </r>
       <r>     0.0079     1.4394   129.8146 </r>
       <r>     0.1107     3.7669   130.2020 </r>
       <r>     0.2135     1.2708   130.3326 </r>
       <r>     0.3163     1.1803   130.4540 </r>
       <r>     0.4191     7.1530   131.1894 </r>
       <r>     0.5220     0.4010   131.2307 </r>
       <r>     0.6248     1.9748   131.4337 </r>
       <r>     0.7276     5.2878   131.9774 </r>
       <r>     0.8304     2.7776   132.2630 </r>
       <r>     0.9332     1.3796   132.4048 </r>
       <r>     1.0360     5.1331   132.9326 </r>
       <r>     1.1389     2.5544   133.1953 </r>
       <r>     1.2417     5.5578   133.7667 </r>
       <r>     1.3445     4.0226   134.1803 </r>
       <r>     1.4473     5.1501   134.7098 </r>
       <r>     1.5501     2.6400   134.9813 </r>
       <r>     1.6530     6.7561   135.6759 </r>
       <r>     1.7558     8.8772   136.5887 </r>
       <r>     1.8586     7.5676   137.3668 </r>
       <r>     1.9614     3.5520   137.7320 </r>
       <r>     2.0642     3.3055   138.0718 </r>
       <r>     2.1671    10.0913   139.1094 </r>
       <r>     2.2699     9.0895   140.0440 </r>
       <r>     2.3727     5.0588   140.5641 </r>
       <r>     2.4755     3.6210   140.9364 </r>
       <r>     2.5783     9.0688   141.8689 </r>
       <r>     2.6812     9.3810   142.8334 </r>
       <r>     2.7840     0.5848   142.8936 </r>
       <r>     2.8868     3.3856   143.2417 </r>
       <r>     2.9896     6.9206   143.9532 </r>
       <r>     3.0924     0.4547   144.0000 </r>
       <r>     3.1952     0.0001   144.0000 </r>
       <r>     3.2981     0.0000   144.0000 </r>
       <r>     3.4009     0.0000   144.0000 </r>
       <r>     3.5037     0.0000   144.0000 </r>
       <r>     3.6065     0.0000   144.0000 </r>
       <r>     3.7093     0.0000   144.0000 </r>
       <r>     3.8122     0.0000   144.0000 </r>
       <r>     3.9150     0.0000   144.0000 </r>
       <r>     4.0178     0.0000   144.0000 </r>
       <r>     4.1206     0.0000   144.0000 </r>
       <r>     4.2234     0.0007   144.0001 </r>
       <r>     4.3263     0.7556   144.0778 </r>
       <r>     4.4291     4.1398   144.5034 </r>
       <r>     4.5319     3.4529   144.8584 </r>
       <r>     4.6347     3.7792   145.2470 </r>
       <r>     4.7375     4.6909   145.7293 </r>
       <r>     4.8403     5.0237   146.2459 </r>
       <r>     4.9432     9.1961   147.1914 </r>
       <r>     5.0460    13.4041   148.5696 </r>
       <r>     5.1488    11.9202   149.7952 </r>
       <r>     5.2516     9.5564   150.7778 </r>
       <r>     5.3544     4.4985   151.2403 </r>
       <r>     5.4573     3.7511   151.6260 </r>
       <r>     5.5601     0.4488   151.6722 </r>
       <r>     5.6629     3.2468   152.0060 </r>
       <r>     5.7657     6.8092   152.7061 </r>
       <r>     5.8685    11.5116   153.8897 </r>
       <r>     5.9714     5.8290   154.4891 </r>
       <r>     6.0742    11.5674   155.6784 </r>
       <r>     6.1770    13.9171   157.1093 </r>
       <r>     6.2798     5.1902   157.6430 </r>
       <r>     6.3826     8.7591   158.5436 </r>
       <r>     6.4855    10.2792   159.6005 </r>
       <r>     6.5883     8.3503   160.4591 </r>
       <r>     6.6911    10.6347   161.5525 </r>
       <r>     6.7939     7.2487   162.2978 </r>
       <r>     6.8967     7.0215   163.0197 </r>
       <r>     6.9995     7.8343   163.8253 </r>
       <r>     7.1024     7.0467   164.5498 </r>
       <r>     7.2052     3.5059   164.9103 </r>
       <r>     7.3080     8.6812   165.8029 </r>
       <r>     7.4108     8.3888   166.6654 </r>
       <r>     7.5136    11.0847   167.8051 </r>
       <r>     7.6165    17.3114   169.5850 </r>
       <r>     7.7193     6.7375   170.2778 </r>
       <r>     7.8221     8.6503   171.1672 </r>
       <r>     7.9249     8.7793   172.0699 </r>
       <r>     8.0277    11.0852   173.2096 </r>
       <r>     8.1306    15.0319   174.7552 </r>
       <r>     8.2334     8.7561   175.6555 </r>
       <r>     8.3362    11.1710   176.8041 </r>
       <r>     8.4390     7.9357   177.6200 </r>
       <r>     8.5418     9.9924   178.6474 </r>
       <r>     8.6446    10.4058   179.7174 </r>
       <r>     8.7475     2.7076   179.9957 </r>
       <r>     8.8503     0.0414   180.0000 </r>
       <r>     8.9531     0.0000   180.0000 </r>
       <r>     9.0559     0.0000   180.0000 </r>
       <r>     9.1587     0.0000   180.0000 </r>
       <r>     9.2616     0.0000   180.0000 </r>
       <r>     9.3644     0.0000   180.0000 </r>
       <r>     9.4672     0.0000   180.0000 </r>
       <r>     9.5700     0.0000   180.0000 </r>
       <r>     9.6728     0.0000   180.0000 </r>
       <r>     9.7757     0.0000   180.0000 </r>
       <r>     9.8785     0.0000   180.0000 </r>
       <r>     9.9813     0.0000   180.0000 </r>
       <r>    10.0841     0.0000   180.0000 </r>
      </set>
     </set>
    </array>
   </total>
  </dos>
 </calculation>
 <structure name="finalpos" >
  <crystal>
   <varray name="basis" >
    <v>       0.00000000       0.00000000       6.86122651 </v>
    <v>       4.96773739      -4.96773739       0.00000000 </v>
    <v>      16.43684247      16.43684247       0.00000000 </v>
   </varray>
   <i name="volume">   1120.49203872 </i>
   <varray name="rec_basis" >
    <v>       0.00000000       0.00000000       0.14574654 </v>
    <v>       0.10064944      -0.10064944       0.00000000 </v>
    <v>       0.03041947       0.03041947       0.00000000 </v>
   </varray>
  </crystal>
  <varray name="positions" >
   <v>       0.36591488       0.05480146       0.00000000 </v>
   <v>       0.86591488       0.05480146       0.00000000 </v>
   <v>       0.11591488       0.36214146       0.05822799 </v>
   <v>       0.61591488       0.36214146       0.05822799 </v>
   <v>       0.11591488       0.74746146       0.05822799 </v>
   <v>       0.61591488       0.74746146       0.05822799 </v>
   <v>       0.36591488       0.05480146       0.11645598 </v>
   <v>       0.86591488       0.05480146       0.11645598 </v>
   <v>       0.36591488       0.55480146       0.15111593 </v>
   <v>       0.86591488       0.55480146       0.15111593 </v>
   <v>       0.11591488       0.24746146       0.20934392 </v>
   <v>       0.61591488       0.24746146       0.20934392 </v>
   <v>       0.11591488       0.86214146       0.20934392 </v>
   <v>       0.61591488       0.86214146       0.20934392 </v>
   <v>       0.36591488       0.55480146       0.26757191 </v>
   <v>       0.86591488       0.55480146       0.26757191 </v>
   <v>       0.36608338       0.05457471       0.30317658 </v>
   <v>       0.86605246       0.05458050       0.30316351 </v>
   <v>       0.11602228       0.36107994       0.36296299 </v>
   <v>       0.61606063       0.36108844       0.36296645 </v>
   <v>       0.11602755       0.74877771       0.36299732 </v>
   <v>       0.61606532       0.74878036       0.36299858 </v>
   <v>       0.36616951       0.05480061       0.42160737 </v>
   <v>       0.86619137       0.05479940       0.42161033 </v>
   <v>       0.36596367       0.55457331       0.45795185 </v>
   <v>       0.86598335       0.55461729       0.45798643 </v>
   <v>       0.11626025       0.24050759       0.52960167 </v>
   <v>       0.61629975       0.24049303       0.52960397 </v>
   <v>       0.11626136       0.86881770       0.52962213 </v>
   <v>       0.61627454       0.86881025       0.52961852 </v>
   <v>       0.36621063       0.55459321       0.57763456 </v>
   <v>       0.86620495       0.55461385       0.57763130 </v>
   <v>       0.11591488       0.05480146       0.05822799 </v>
   <v>       0.61591488       0.05480146       0.05822799 </v>
   <v>       0.36591488       0.55480146       0.05822799 </v>
   <v>       0.86591488       0.55480146       0.05822799 </v>
   <v>       0.36591488       0.05480146       0.20934392 </v>
   <v>       0.86591488       0.05480146       0.20934392 </v>
   <v>       0.11591488       0.55480146       0.20934392 </v>
   <v>       0.61591488       0.55480146       0.20934392 </v>
   <v>       0.11624776       0.05496105       0.36067536 </v>
   <v>       0.61606664       0.05494726       0.36068074 </v>
   <v>       0.36600994       0.55495767       0.36347021 </v>
   <v>       0.86601469       0.55496240       0.36347721 </v>
   <v>       0.36624186       0.05472506       0.51351920 </v>
   <v>       0.86624183       0.05470070       0.51351550 </v>
   <v>       0.11599038       0.55466614       0.52151493 </v>
   <v>       0.61632069       0.55467327       0.52150523 </v>
  </varray>
  <varray name="selective"  type="logical" >
   <v type="logical" >  F  F  F </v>
   <v type="logical" >  F  F  F </v>
   <v type="logical" >  F  F  F </v>
   <v type="logical" >  F  F  F </v>
   <v type="logical" >  F  F  F </v>
   <v type="logical" >  F  F  F </v>
   <v type="logical" >  F  F  F </v>
   <v type="logical" >  F  F  F </v>
   <v type="logical" >  F  F  F </v>
   <v type="logical" >  F  F  F </v>
   <v type="logical" >  F  F  F </v>
   <v type="logical" >  F  F  F </v>
   <v type="logical" >  F  F  F </v>
   <v type="logical" >  F  F  F </v>
   <v type="logical" >  F  F  F </v>
   <v type="logical" >  F  F  F </v>
   <v type="logical" >  T  T  T </v>
   <v type="logical" >  T  T  T </v>
   <v type="logical" >  T  T  T </v>
   <v type="logical" >  T  T  T </v>
   <v type="logical" >  T  T  T </v>
   <v type="logical" >  T  T  T </v>
   <v type="logical" >  T  T  T </v>
   <v type="logical" >  T  T  T </v>
   <v type="logical" >  T  T  T </v>
   <v type="logical" >  T  T  T </v>
   <v type="logical" >  T  T  T </v>
   <v type="logical" >  T  T  T </v>
   <v type="logical" >  T  T  T </v>
   <v type="logical" >  T  T  T </v>
   <v type="logical" >  T  T  T </v>
   <v type="logical" >  T  T  T </v>
   <v type="logical" >  F  F  F </v>
   <v type="logical" >  F  F  F </v>
   <v type="logical" >  F  F  F </v>
   <v type="logical" >  F  F  F </v>
   <v type="logical" >  F  F  F </v>
   <v type="logical" >  F  F  F </v>
   <v type="logical" >  F  F  F </v>
   <v type="logical" >  F  F  F </v>
   <v type="logical" >  T  T  T </v>
   <v type="logical" >  T  T  T </v>
   <v type="logical" >  T  T  T </v>
   <v type="logical" >  T  T  T </v>
   <v type="logical" >  T  T  T </v>
   <v type="logical" >  T  T  T </v>
   <v type="logical" >  T  T  T </v>
   <v type="logical" >  T  T  T </v>
  </varray>
  <nose>
   <v>      -3.00000000       0.00000000       0.00010000       0.00010000 </v>
  </nose>
 </structure>
</modeling>
