<?xml version="1.0" encoding="ISO-8859-1"?>
<modeling>
 <generator>
  <i name="program" type="string">vasp </i>
  <i name="version" type="string">5.4.1  </i>
  <i name="subversion" type="string">08Jul2015 (build Apr 24 2014 00:09:29) complex standard with constrain (TS)     parallel </i>
  <i name="platform" type="string">IBM of Center for Computational Chemistry </i>
  <i name="date" type="string">2017 10 22 </i>
  <i name="time" type="string">19:42:42 </i>
 </generator>
 <incar>
  <i type="string" name="SYSTEM"> rTiO2_suf110_d3_2x1x4</i>
  <i type="int" name="ISTART">     0</i>
  <i type="string" name="PREC">accurate       ! [low/medium/high/norma</i>
  <i type="string" name="ALGO">Fast</i>
  <i type="int" name="ISPIN">     2</i>
  <i type="int" name="NELM">   300</i>
  <i type="int" name="NELMIN">     3</i>
  <i type="int" name="IBRION">     2</i>
  <i name="EDIFFG">     -0.05000000</i>
  <i type="int" name="NSW">   800</i>
  <i type="int" name="ISIF">     2</i>
  <i type="int" name="ISYM">     0</i>
  <i name="ENCUT">    500.00000000</i>
  <i name="POTIM">      0.10000000</i>
  <i type="string" name="LREAL"> A    ! aproximace, T zpomaluje, ale pre</i>
  <i type="int" name="ISMEAR">     0</i>
  <i name="SIGMA">      0.05000000</i>
  <i type="int" name="NWRITE">     2</i>
  <i type="logical" name="LWAVE"> F  </i>
  <i type="logical" name="LCHARG"> F  </i>
  <v type="int" name="KPOINT_BSE">    -1     0     0     0</v>
  <i type="int" name="NELM">   300</i>
 </incar>
 <kpoints>
  <generation param="Gamma">
   <v type="int" name="divisions">       4        4        1 </v>
   <v name="usershift">      0.00000000       0.00000000       0.00000000 </v>
   <v name="genvec1">      0.25000000       0.00000000       0.00000000 </v>
   <v name="genvec2">      0.00000000       0.25000000       0.00000000 </v>
   <v name="genvec3">      0.00000000       0.00000000       1.00000000 </v>
   <v name="shift">      0.00000000       0.00000000       0.00000000 </v>
  </generation>
  <varray name="kpointlist" >
   <v>       0.00000000       0.00000000       0.00000000 </v>
   <v>       0.25000000       0.00000000       0.00000000 </v>
   <v>       0.50000000       0.00000000       0.00000000 </v>
   <v>       0.00000000       0.25000000       0.00000000 </v>
   <v>       0.25000000       0.25000000       0.00000000 </v>
   <v>       0.50000000       0.25000000       0.00000000 </v>
   <v>      -0.25000000       0.25000000       0.00000000 </v>
   <v>       0.00000000       0.50000000       0.00000000 </v>
   <v>       0.25000000       0.50000000       0.00000000 </v>
   <v>       0.50000000       0.50000000       0.00000000 </v>
  </varray>
  <varray name="weights" >
   <v>       0.06250000 </v>
   <v>       0.12500000 </v>
   <v>       0.06250000 </v>
   <v>       0.12500000 </v>
   <v>       0.12500000 </v>
   <v>       0.12500000 </v>
   <v>       0.12500000 </v>
   <v>       0.06250000 </v>
   <v>       0.12500000 </v>
   <v>       0.06250000 </v>
  </varray>
 </kpoints>
 <parameters>
  <separator name="general" >
   <i type="string" name="SYSTEM">rTiO2_suf110_d3_2x1x4</i>
   <i type="logical" name="LCOMPAT"> F  </i>
  </separator>
  <separator name="electronic" >
   <i type="string" name="PREC">accura</i>
   <i name="ENMAX">    500.00000000</i>
   <i name="ENAUG">    605.39200000</i>
   <i name="EDIFF">      0.00010000</i>
   <i type="int" name="IALGO">    68</i>
   <i type="int" name="IWAVPR">    11</i>
   <i type="int" name="NBANDS">   180</i>
   <i name="NELECT">    256.00000000</i>
   <i type="int" name="TURBO">     0</i>
   <i type="int" name="IRESTART">     0</i>
   <i type="int" name="NREBOOT">     0</i>
   <i type="int" name="NMIN">     0</i>
   <i name="EREF">      0.00000000</i>
   <separator name="electronic smearing" >
    <i type="int" name="ISMEAR">     0</i>
    <i name="SIGMA">      0.05000000</i>
    <i name="KSPACING">      0.50000000</i>
    <i type="logical" name="KGAMMA"> T  </i>
   </separator>
   <separator name="electronic projectors" >
    <i type="logical" name="LREAL"> T  </i>
    <v name="ROPT">     -0.00025000     -0.00025000</v>
    <i type="int" name="LMAXPAW">  -100</i>
    <i type="int" name="LMAXMIX">     2</i>
    <i type="logical" name="NLSPLINE"> F  </i>
   </separator>
   <separator name="electronic startup" >
    <i type="int" name="ISTART">     0</i>
    <i type="int" name="ICHARG">     2</i>
    <i type="int" name="INIWAV">     1</i>
   </separator>
   <separator name="electronic spin" >
    <i type="int" name="ISPIN">     2</i>
    <i type="logical" name="LNONCOLLINEAR"> F  </i>
    <v name="MAGMOM">      1.00000000      1.00000000      1.00000000      1.00000000      1.00000000      1.00000000      1.00000000      1.00000000      1.00000000      1.00000000      1.00000000      1.00000000      1.00000000      1.00000000      1.00000000      1.00000000      1.00000000      1.00000000      1.00000000      1.00000000
      1.00000000      1.00000000      1.00000000      1.00000000      1.00000000      1.00000000      1.00000000      1.00000000      1.00000000      1.00000000      1.00000000      1.00000000      1.00000000      1.00000000      1.00000000      1.00000000      1.00000000      1.00000000      1.00000000      1.00000000
      1.00000000      1.00000000      1.00000000      1.00000000      1.00000000      1.00000000      1.00000000      1.00000000</v>
    <i name="NUPDOWN">     -1.00000000</i>
    <i type="logical" name="LSORBIT"> F  </i>
    <v name="SAXIS">      0.00000000      0.00000000      1.00000000</v>
    <i type="logical" name="LSPIRAL"> F  </i>
    <v name="QSPIRAL">      0.00000000      0.00000000      0.00000000</v>
    <i type="logical" name="LZEROZ"> F  </i>
   </separator>
   <separator name="electronic exchange-correlation" >
    <i type="logical" name="LASPH"> F  </i>
    <i type="logical" name="LMETAGGA"> F  </i>
   </separator>
   <separator name="electronic convergence" >
    <i type="int" name="NELM">   300</i>
    <i type="int" name="NELMDL">    -5</i>
    <i type="int" name="NELMIN">     3</i>
    <i name="ENINI">    500.00000000</i>
    <separator name="electronic convergence detail" >
     <i type="logical" name="LDIAG"> T  </i>
     <i type="logical" name="LSUBROT"> F  </i>
     <i name="WEIMIN">      0.00100000</i>
     <i name="EBREAK">      0.00000014</i>
     <i name="DEPER">      0.30000000</i>
     <i type="int" name="NRMM">     4</i>
     <i name="TIME">      0.40000000</i>
    </separator>
   </separator>
   <separator name="electronic mixer" >
    <i name="AMIX">      0.40000000</i>
    <i name="BMIX">      1.00000000</i>
    <i name="AMIN">      0.10000000</i>
    <i name="AMIX_MAG">      1.60000000</i>
    <i name="BMIX_MAG">      1.00000000</i>
    <separator name="electronic mixer details" >
     <i type="int" name="IMIX">     4</i>
     <i type="logical" name="MIXFIRST"> F  </i>
     <i type="int" name="MAXMIX">   -45</i>
     <i name="WC">    100.00000000</i>
     <i type="int" name="INIMIX">     1</i>
     <i type="int" name="MIXPRE">     1</i>
     <i type="int" name="MREMOVE">     5</i>
    </separator>
   </separator>
   <separator name="electronic dipolcorrection" >
    <i type="logical" name="LDIPOL"> F  </i>
    <i type="logical" name="LMONO"> F  </i>
    <i type="int" name="IDIPOL">     0</i>
    <i name="EPSILON">      1.00000000</i>
    <v name="DIPOL">   -100.00000000   -100.00000000   -100.00000000</v>
    <i name="EFIELD">      0.00000000</i>
   </separator>
  </separator>
  <separator name="grids" >
   <i type="int" name="NGX">    48</i>
   <i type="int" name="NGY">    48</i>
   <i type="int" name="NGZ">   168</i>
   <i type="int" name="NGXF">    96</i>
   <i type="int" name="NGYF">    96</i>
   <i type="int" name="NGZF">   336</i>
   <i type="logical" name="ADDGRID"> F  </i>
  </separator>
  <separator name="ionic" >
   <i type="int" name="NSW">   800</i>
   <i type="int" name="IBRION">     2</i>
   <i type="int" name="ISIF">     2</i>
   <i name="PSTRESS">      0.00000000</i>
   <i name="EDIFFG">     -0.05000000</i>
   <i type="int" name="NFREE">     1</i>
   <i name="POTIM">      0.10000000</i>
   <i name="SMASS">     -3.00000000</i>
   <i name="SCALEE">      1.00000000</i>
  </separator>
  <separator name="ionic md" >
   <i name="TEBEG">      0.00010000</i>
   <i name="TEEND">      0.00010000</i>
   <i type="int" name="NBLOCK">     1</i>
   <i type="int" name="KBLOCK">   800</i>
   <i type="int" name="NPACO">   256</i>
   <i name="APACO">     16.00000000</i>
  </separator>
  <separator name="symmetry" >
   <i type="int" name="ISYM">     0</i>
   <i name="SYMPREC">      0.00001000</i>
  </separator>
  <separator name="dos" >
   <i type="logical" name="LORBIT"> F  </i>
   <v name="RWIGS">     -1.00000000     -1.00000000</v>
   <i type="int" name="NEDOS">   301</i>
   <i name="EMIN">     10.00000000</i>
   <i name="EMAX">    -10.00000000</i>
   <i name="EFERMI">      0.00000000</i>
  </separator>
  <separator name="writing" >
   <i type="int" name="NWRITE">     2</i>
   <i type="logical" name="LWAVE"> F  </i>
   <i type="logical" name="LCHARG"> F  </i>
   <i type="logical" name="LPARD"> F  </i>
   <i type="logical" name="LVTOT"> F  </i>
   <i type="logical" name="LVHAR"> F  </i>
   <i type="logical" name="LELF"> F  </i>
   <i type="logical" name="LOPTICS"> F  </i>
   <v name="STM">      0.00000000      0.00000000      0.00000000      0.00000000      0.00000000      0.00000000      0.00000000</v>
  </separator>
  <separator name="performance" >
   <i type="int" name="NPAR">     4</i>
   <i type="int" name="NSIM">     4</i>
   <i type="int" name="NBLK">    -1</i>
   <i type="logical" name="LPLANE"> T  </i>
   <i type="logical" name="LSCALAPACK"> T  </i>
   <i type="logical" name="LSCAAWARE"> F  </i>
   <i type="logical" name="LSCALU"> F  </i>
   <i type="logical" name="LASYNC"> F  </i>
   <i type="logical" name="LORBITALREAL"> F  </i>
  </separator>
  <separator name="miscellaneous" >
   <i type="int" name="IDIOT">     3</i>
   <i type="logical" name="LMUSIC"> F  </i>
   <v name="POMASS">     16.00000000     47.88000000</v>
   <v name="DARWINR">      0.00000000      0.00000000</v>
   <v name="DARWINV">      1.00000000      1.00000000</v>
   <i type="logical" name="LCORR"> T  </i>
  </separator>
  <i type="logical" name="GGA_COMPAT"> T  </i>
  <i type="logical" name="LBERRY"> F  </i>
  <i type="int" name="ICORELEVEL">     0</i>
  <i type="logical" name="LDAU"> F  </i>
  <i type="int" name="I_CONSTRAINED_M">     0</i>
  <separator name="electronic exchange-correlation" >
   <i type="string" name="GGA">--</i>
   <i type="int" name="VOSKOWN">     0</i>
   <i type="logical" name="LHFCALC"> F  </i>
   <i type="string" name="PRECFOCK"></i>
   <i type="logical" name="LSYMGRAD"> F  </i>
   <i type="logical" name="LHFONE"> F  </i>
   <i type="logical" name="LRHFCALC"> F  </i>
   <i type="logical" name="LTHOMAS"> F  </i>
   <i type="logical" name="LMODELHF"> F  </i>
   <i name="ENCUT4O">     -1.00000000</i>
   <i type="int" name="EXXOEP">     0</i>
   <i type="int" name="FOURORBIT">     0</i>
   <i name="AEXX">      0.00000000</i>
   <i name="HFALPHA">      0.00000000</i>
   <i name="MCALPHA">      0.00000000</i>
   <i name="ALDAX">      1.00000000</i>
   <i name="AGGAX">      1.00000000</i>
   <i name="ALDAC">      1.00000000</i>
   <i name="AGGAC">      1.00000000</i>
   <i type="int" name="NKREDX">     1</i>
   <i type="int" name="NKREDY">     1</i>
   <i type="int" name="NKREDZ">     1</i>
   <i type="logical" name="SHIFTRED"> F  </i>
   <i type="logical" name="ODDONLY"> F  </i>
   <i type="logical" name="EVENONLY"> F  </i>
   <i type="int" name="LMAXFOCK">     0</i>
   <i type="int" name="NMAXFOCKAE">     0</i>
   <i type="logical" name="LFOCKAEDFT"> F  </i>
   <i name="HFSCREEN">      0.00000000</i>
   <i name="HFSCREENC">      0.00000000</i>
   <i type="int" name="NBANDSGWLOW">     0</i>
  </separator>
  <separator name="vdW DFT" >
   <i type="logical" name="LUSE_VDW"> F  </i>
   <i name="Zab_VDW">     -0.84910000</i>
   <i name="PARAM1">      0.12340000</i>
   <i name="PARAM2">      1.00000000</i>
   <i name="PARAM3">      0.00000000</i>
  </separator>
  <separator name="model GW" >
   <i type="int" name="MODEL_GW">     0</i>
   <i name="MODEL_EPS0">     10.84929707</i>
   <i name="MODEL_ALPHA">      1.00000000</i>
  </separator>
  <separator name="linear response parameters" >
   <i type="logical" name="LEPSILON"> F  </i>
   <i type="logical" name="LRPA"> F  </i>
   <i type="logical" name="LNABLA"> F  </i>
   <i type="logical" name="LVEL"> F  </i>
   <i type="int" name="KINTER">     0</i>
   <i name="CSHIFT">      0.10000000</i>
   <i name="OMEGAMAX">     -1.00000000</i>
   <i name="DEG_THRESHOLD">      0.00200000</i>
  </separator>
  <separator name="orbital magnetization" >
   <i type="logical" name="NUCIND"> F  </i>
   <v name="MAGPOS">      0.00000000      0.00000000      0.00000000</v>
   <i type="logical" name="LNICSALL"> T  </i>
   <i type="logical" name="ORBITALMAG"> F  </i>
   <i type="logical" name="LMAGBLOCH"> F  </i>
   <i type="logical" name="LCHIMAG"> F  </i>
   <i type="logical" name="LGAUGE"> T  </i>
   <i type="int" name="MAGATOM">     0</i>
   <v name="MAGDIPOL">      0.00000000      0.00000000      0.00000000</v>
   <v name="AVECCONST">      0.00000000      0.00000000      0.00000000</v>
  </separator>
  <separator name="response functions" >
   <i type="logical" name="LADDER"> F  </i>
   <i type="logical" name="LFXC"> F  </i>
   <i type="logical" name="LHARTREE"> T  </i>
   <i type="int" name="IBSE">     0</i>
   <v type="int" name="KPOINT">    -1     0     0     0</v>
   <i type="logical" name="LTCTE"> F  </i>
   <i type="logical" name="LTETE"> F  </i>
   <i type="logical" name="LTRIPLET"> F  </i>
   <i type="logical" name="LFXCEPS"> F  </i>
   <i type="logical" name="LFXHEG"> F  </i>
   <i type="int" name="NATURALO">     0</i>
   <i type="logical" name="L2ORDER"> F  </i>
   <i type="logical" name="LUSEW"> F  </i>
   <i name="ENCUTGW">     -2.00000000</i>
   <i name="ENCUTGWSOFT">     -2.00000000</i>
   <i name="ENCUTLF">     -1.00000000</i>
   <i type="int" name="LMAXMP2">    -1</i>
   <i name="SCISSOR">      0.00000000</i>
   <i type="int" name="NOMEGA">     0</i>
   <i type="int" name="NOMEGAR">     0</i>
   <i type="int" name="NBANDSGW">    -1</i>
   <i type="int" name="NBANDSO">    -1</i>
   <i type="int" name="NBANDSV">    -1</i>
   <i type="int" name="NELM">   300</i>
   <i type="int" name="NELMHF">     1</i>
   <i type="int" name="DIM">     3</i>
   <i type="int" name="ANTIRES">     0</i>
   <i name="OMEGAMAX">    -30.00000000</i>
   <i name="OMEGAMIN">    -30.00000000</i>
   <i name="OMEGATL">   -200.00000000</i>
   <i type="int" name="OMEGAGRID">     0</i>
   <i name="CSHIFT">     -0.10000000</i>
   <i type="logical" name="SELFENERGY"> F  </i>
   <i type="logical" name="LSPECTRAL"> F  </i>
   <i type="logical" name="LSPECTRALGW"> F  </i>
   <i type="logical" name="LSINGLES"> F  </i>
   <i type="logical" name="LFERMIGW"> F  </i>
   <i type="logical" name="ODDONLYGW"> F  </i>
   <i type="logical" name="EVENONLYGW"> F  </i>
   <i type="int" name="NKREDLFX">     1</i>
   <i type="int" name="NKREDLFY">     1</i>
   <i type="int" name="NKREDLFZ">     1</i>
   <i type="int" name="MAXMEM">  1800</i>
   <i type="int" name="TELESCOPE">     0</i>
   <i type="int" name="TAUPAR">     1</i>
   <i type="int" name="OMEGAPAR">    -1</i>
   <i name="LAMBDA">      1.00000000</i>
  </separator>
  <separator name="External order field" >
   <i name="OFIELD_KAPPA">      0.00000000</i>
   <v name="OFIELD_K">      0.00000000      0.00000000      0.00000000</v>
   <i name="OFIELD_Q6_NEAR">      0.00000000</i>
   <i name="OFIELD_Q6_FAR">      0.00000000</i>
   <i name="OFIELD_A">      0.00000000</i>
  </separator>
 </parameters>
 <atominfo>
  <atoms>      48 </atoms>
  <types>       2 </types>
  <array name="atoms" >
   <dimension dim="1">ion</dimension>
   <field type="string">element</field>
   <field type="int">atomtype</field>
   <set>
    <rc><c>O </c><c>   1</c></rc>
    <rc><c>O </c><c>   1</c></rc>
    <rc><c>O </c><c>   1</c></rc>
    <rc><c>O </c><c>   1</c></rc>
    <rc><c>O </c><c>   1</c></rc>
    <rc><c>O </c><c>   1</c></rc>
    <rc><c>O </c><c>   1</c></rc>
    <rc><c>O </c><c>   1</c></rc>
    <rc><c>O </c><c>   1</c></rc>
    <rc><c>O </c><c>   1</c></rc>
    <rc><c>O </c><c>   1</c></rc>
    <rc><c>O </c><c>   1</c></rc>
    <rc><c>O </c><c>   1</c></rc>
    <rc><c>O </c><c>   1</c></rc>
    <rc><c>O </c><c>   1</c></rc>
    <rc><c>O </c><c>   1</c></rc>
    <rc><c>O </c><c>   1</c></rc>
    <rc><c>O </c><c>   1</c></rc>
    <rc><c>O </c><c>   1</c></rc>
    <rc><c>O </c><c>   1</c></rc>
    <rc><c>O </c><c>   1</c></rc>
    <rc><c>O </c><c>   1</c></rc>
    <rc><c>O </c><c>   1</c></rc>
    <rc><c>O </c><c>   1</c></rc>
    <rc><c>O </c><c>   1</c></rc>
    <rc><c>O </c><c>   1</c></rc>
    <rc><c>O </c><c>   1</c></rc>
    <rc><c>O </c><c>   1</c></rc>
    <rc><c>O </c><c>   1</c></rc>
    <rc><c>O </c><c>   1</c></rc>
    <rc><c>O </c><c>   1</c></rc>
    <rc><c>O </c><c>   1</c></rc>
    <rc><c>Ti</c><c>   2</c></rc>
    <rc><c>Ti</c><c>   2</c></rc>
    <rc><c>Ti</c><c>   2</c></rc>
    <rc><c>Ti</c><c>   2</c></rc>
    <rc><c>Ti</c><c>   2</c></rc>
    <rc><c>Ti</c><c>   2</c></rc>
    <rc><c>Ti</c><c>   2</c></rc>
    <rc><c>Ti</c><c>   2</c></rc>
    <rc><c>Ti</c><c>   2</c></rc>
    <rc><c>Ti</c><c>   2</c></rc>
    <rc><c>Ti</c><c>   2</c></rc>
    <rc><c>Ti</c><c>   2</c></rc>
    <rc><c>Ti</c><c>   2</c></rc>
    <rc><c>Ti</c><c>   2</c></rc>
    <rc><c>Ti</c><c>   2</c></rc>
    <rc><c>Ti</c><c>   2</c></rc>
   </set>
  </array>
  <array name="atomtypes" >
   <dimension dim="1">type</dimension>
   <field type="int">atomspertype</field>
   <field type="string">element</field>
   <field>mass</field>
   <field>valence</field>
   <field type="string">pseudopotential</field>
   <set>
    <rc><c>  32</c><c>O </c><c>     16.00000000</c><c>      6.00000000</c><c>  PAW_PBE O 08Apr2002                   </c></rc>
    <rc><c>  16</c><c>Ti</c><c>     47.88000000</c><c>      4.00000000</c><c>  PAW_PBE Ti 08Apr2002                  </c></rc>
   </set>
  </array>
 </atominfo>
 <structure name="initialpos" >
  <crystal>
   <varray name="basis" >
    <v>       0.00000000       0.00000000       5.92135997 </v>
    <v>       4.62995342      -4.62995342       0.00000000 </v>
    <v>      15.82936550      15.82936550       0.00000000 </v>
   </varray>
   <i name="volume">    867.94376550 </i>
   <varray name="rec_basis" >
    <v>       0.00000000       0.00000000       0.16888012 </v>
    <v>       0.10799245      -0.10799245       0.00000000 </v>
    <v>       0.03158686       0.03158686       0.00000000 </v>
   </varray>
  </crystal>
  <varray name="positions" >
   <v>       0.08911189       0.77346320       0.00000000 </v>
   <v>       0.58911189       0.77346320       0.00000000 </v>
   <v>       0.33911189       0.07763320       0.05727859 </v>
   <v>       0.83911189       0.07763320       0.05727859 </v>
   <v>       0.33911189       0.46929320       0.05727859 </v>
   <v>       0.83911189       0.46929320       0.05727859 </v>
   <v>       0.08911189       0.77346320       0.11455719 </v>
   <v>       0.58911189       0.77346320       0.11455719 </v>
   <v>       0.08911189       0.27346320       0.14624570 </v>
   <v>       0.58911189       0.27346320       0.14624570 </v>
   <v>       0.33911189       0.57763320       0.20352430 </v>
   <v>       0.83911189       0.57763320       0.20352430 </v>
   <v>       0.33911189       0.96929320       0.20352430 </v>
   <v>       0.83911189       0.96929320       0.20352430 </v>
   <v>       0.08911189       0.27346320       0.26080289 </v>
   <v>       0.58911189       0.27346320       0.26080289 </v>
   <v>       0.08911189       0.77346320       0.29249141 </v>
   <v>       0.58911189       0.77346320       0.29249141 </v>
   <v>       0.33911189       0.07763320       0.34977000 </v>
   <v>       0.83911189       0.07763320       0.34977000 </v>
   <v>       0.33911189       0.46929320       0.34977000 </v>
   <v>       0.83911189       0.46929320       0.34977000 </v>
   <v>       0.08911189       0.77346320       0.40704859 </v>
   <v>       0.58911189       0.77346320       0.40704859 </v>
   <v>       0.08911189       0.27346320       0.43873711 </v>
   <v>       0.58911189       0.27346320       0.43873711 </v>
   <v>       0.33911189       0.57763320       0.49601571 </v>
   <v>       0.83911189       0.57763320       0.49601571 </v>
   <v>       0.33911189       0.96929320       0.49601571 </v>
   <v>       0.83911189       0.96929320       0.49601571 </v>
   <v>       0.08911189       0.27346320       0.55329430 </v>
   <v>       0.58911189       0.27346320       0.55329430 </v>
   <v>       0.08911189       0.27346320       0.05727859 </v>
   <v>       0.58911189       0.27346320       0.05727859 </v>
   <v>       0.33911189       0.77346320       0.05727859 </v>
   <v>       0.83911189       0.77346320       0.05727859 </v>
   <v>       0.33911189       0.27346320       0.20352430 </v>
   <v>       0.83911189       0.27346320       0.20352430 </v>
   <v>       0.08911189       0.77346320       0.20352430 </v>
   <v>       0.58911189       0.77346320       0.20352430 </v>
   <v>       0.08911189       0.27346320       0.34977000 </v>
   <v>       0.58911189       0.27346320       0.34977000 </v>
   <v>       0.33911189       0.77346320       0.34977000 </v>
   <v>       0.83911189       0.77346320       0.34977000 </v>
   <v>       0.33911189       0.27346320       0.49601571 </v>
   <v>       0.83911189       0.27346320       0.49601571 </v>
   <v>       0.08911189       0.77346320       0.49601571 </v>
   <v>       0.58911189       0.77346320       0.49601571 </v>
  </varray>
  <varray name="selective"  type="logical" >
   <v type="logical" >  F  F  F </v>
   <v type="logical" >  F  F  F </v>
   <v type="logical" >  F  F  F </v>
   <v type="logical" >  F  F  F </v>
   <v type="logical" >  F  F  F </v>
   <v type="logical" >  F  F  F </v>
   <v type="logical" >  F  F  F </v>
   <v type="logical" >  F  F  F </v>
   <v type="logical" >  F  F  F </v>
   <v type="logical" >  F  F  F </v>
   <v type="logical" >  F  F  F </v>
   <v type="logical" >  F  F  F </v>
   <v type="logical" >  F  F  F </v>
   <v type="logical" >  F  F  F </v>
   <v type="logical" >  F  F  F </v>
   <v type="logical" >  F  F  F </v>
   <v type="logical" >  T  T  T </v>
   <v type="logical" >  T  T  T </v>
   <v type="logical" >  T  T  T </v>
   <v type="logical" >  T  T  T </v>
   <v type="logical" >  T  T  T </v>
   <v type="logical" >  T  T  T </v>
   <v type="logical" >  T  T  T </v>
   <v type="logical" >  T  T  T </v>
   <v type="logical" >  T  T  T </v>
   <v type="logical" >  T  T  T </v>
   <v type="logical" >  T  T  T </v>
   <v type="logical" >  T  T  T </v>
   <v type="logical" >  T  T  T </v>
   <v type="logical" >  T  T  T </v>
   <v type="logical" >  T  T  T </v>
   <v type="logical" >  T  T  T </v>
   <v type="logical" >  F  F  F </v>
   <v type="logical" >  F  F  F </v>
   <v type="logical" >  F  F  F </v>
   <v type="logical" >  F  F  F </v>
   <v type="logical" >  F  F  F </v>
   <v type="logical" >  F  F  F </v>
   <v type="logical" >  F  F  F </v>
   <v type="logical" >  F  F  F </v>
   <v type="logical" >  T  T  T </v>
   <v type="logical" >  T  T  T </v>
   <v type="logical" >  T  T  T </v>
   <v type="logical" >  T  T  T </v>
   <v type="logical" >  T  T  T </v>
   <v type="logical" >  T  T  T </v>
   <v type="logical" >  T  T  T </v>
   <v type="logical" >  T  T  T </v>
  </varray>
  <nose>
   <v>      -3.00000000       0.00000000       0.00010000       0.00010000 </v>
  </nose>
 </structure>
 <calculation>
  <scstep>
   <time name="dav">   21.65   21.66</time>
   <time name="total">   21.98   21.99</time>
   <energy>
    <i name="alphaZ">    634.37545783 </i>
    <i name="ewald">  38113.38033382 </i>
    <i name="hartreedc"> -52667.66237621 </i>
    <i name="XCdc">    292.09075949 </i>
    <i name="pawpsdc">  13091.53126582 </i>
    <i name="pawaedc"> -12501.72757480 </i>
    <i name="eentropy">     -0.03097642 </i>
    <i name="bandstr">   1206.15871781 </i>
    <i name="atom">  15352.08822555 </i>
    <i name="e_fr_energy">   3520.20383291 </i>
    <i name="e_wo_entrp">   3520.23480932 </i>
    <i name="e_0_energy">   3520.21932112 </i>
   </energy>
  </scstep>
  <scstep>
   <time name="dav">   22.41   22.42</time>
   <time name="total">   22.41   22.43</time>
   <energy>
    <i name="e_fr_energy">    679.58396431 </i>
    <i name="e_wo_entrp">    679.61432851 </i>
    <i name="e_0_energy">    679.59914641 </i>
   </energy>
  </scstep>
  <scstep>
   <time name="dav">   25.70   25.71</time>
   <time name="total">   25.70   25.71</time>
   <energy>
    <i name="e_fr_energy">   -453.69170210 </i>
    <i name="e_wo_entrp">   -453.69170210 </i>
    <i name="e_0_energy">   -453.69170210 </i>
   </energy>
  </scstep>
  <scstep>
   <time name="dav">   26.29   26.29</time>
   <time name="total">   26.29   26.30</time>
   <energy>
    <i name="e_fr_energy">   -546.25028529 </i>
    <i name="e_wo_entrp">   -546.25028529 </i>
    <i name="e_0_energy">   -546.25028529 </i>
   </energy>
  </scstep>
  <scstep>
   <time name="dav">   27.20   27.21</time>
   <time name="total">   27.90   27.91</time>
   <energy>
    <i name="e_fr_energy">   -549.19234490 </i>
    <i name="e_wo_entrp">   -549.19234490 </i>
    <i name="e_0_energy">   -549.19234490 </i>
   </energy>
  </scstep>
  <scstep>
   <time name="diag">    3.63    3.63</time>
   <time name="diis">   12.92   12.92</time>
   <time name="orth">    0.65    0.65</time>
   <time name="total">   18.22   18.54</time>
   <energy>
    <i name="e_fr_energy">   -337.51110573 </i>
    <i name="e_wo_entrp">   -337.46880119 </i>
    <i name="e_0_energy">   -337.48995346 </i>
   </energy>
  </scstep>
  <scstep>
   <time name="diag">    3.62    3.62</time>
   <time name="diis">   12.90   12.90</time>
   <time name="orth">    0.65    0.65</time>
   <time name="total">   18.17   18.48</time>
   <energy>
    <i name="e_fr_energy">   -380.41761900 </i>
    <i name="e_wo_entrp">   -380.41761900 </i>
    <i name="e_0_energy">   -380.41761900 </i>
   </energy>
  </scstep>
  <scstep>
   <time name="diag">    3.62    3.62</time>
   <time name="diis">   12.87   12.87</time>
   <time name="orth">    0.65    0.65</time>
   <time name="total">   18.14   18.80</time>
   <energy>
    <i name="e_fr_energy">   -344.94934208 </i>
    <i name="e_wo_entrp">   -344.94934208 </i>
    <i name="e_0_energy">   -344.94934208 </i>
   </energy>
  </scstep>
  <scstep>
   <time name="diag">    3.63    3.63</time>
   <time name="diis">   12.87   12.87</time>
   <time name="orth">    0.65    0.65</time>
   <time name="total">   18.15   18.16</time>
   <energy>
    <i name="e_fr_energy">   -345.74746988 </i>
    <i name="e_wo_entrp">   -345.74746988 </i>
    <i name="e_0_energy">   -345.74746988 </i>
   </energy>
  </scstep>
  <scstep>
   <time name="diag">    3.62    3.62</time>
   <time name="diis">   12.87   12.87</time>
   <time name="orth">    0.65    0.65</time>
   <time name="total">   18.14   18.15</time>
   <energy>
    <i name="e_fr_energy">   -350.51964251 </i>
    <i name="e_wo_entrp">   -350.51964251 </i>
    <i name="e_0_energy">   -350.51964251 </i>
   </energy>
  </scstep>
  <scstep>
   <time name="diag">    3.62    3.62</time>
   <time name="diis">   12.85   12.86</time>
   <time name="orth">    0.65    0.65</time>
   <time name="total">   18.12   18.52</time>
   <energy>
    <i name="e_fr_energy">   -371.06736264 </i>
    <i name="e_wo_entrp">   -371.06736264 </i>
    <i name="e_0_energy">   -371.06736264 </i>
   </energy>
  </scstep>
  <scstep>
   <time name="diag">    3.62    3.62</time>
   <time name="diis">   12.83   12.83</time>
   <time name="orth">    0.64    0.65</time>
   <time name="total">   18.10   18.85</time>
   <energy>
    <i name="e_fr_energy">   -395.99412822 </i>
    <i name="e_wo_entrp">   -395.99412822 </i>
    <i name="e_0_energy">   -395.99412822 </i>
   </energy>
  </scstep>
  <scstep>
   <time name="diag">    3.62    3.62</time>
   <time name="diis">   12.92   12.93</time>
   <time name="orth">    0.65    0.65</time>
   <time name="total">   18.20   18.21</time>
   <energy>
    <i name="e_fr_energy">   -410.58851259 </i>
    <i name="e_wo_entrp">   -410.58851259 </i>
    <i name="e_0_energy">   -410.58851259 </i>
   </energy>
  </scstep>
  <scstep>
   <time name="diag">    3.63    3.63</time>
   <time name="diis">   12.93   12.93</time>
   <time name="orth">    0.65    0.65</time>
   <time name="total">   18.21   18.34</time>
   <energy>
    <i name="e_fr_energy">   -414.76075534 </i>
    <i name="e_wo_entrp">   -414.76075534 </i>
    <i name="e_0_energy">   -414.76075534 </i>
   </energy>
  </scstep>
  <scstep>
   <time name="diag">    3.63    3.63</time>
   <time name="diis">   13.12   13.13</time>
   <time name="orth">    0.65    0.65</time>
   <time name="total">   18.40   18.93</time>
   <energy>
    <i name="e_fr_energy">   -415.91304817 </i>
    <i name="e_wo_entrp">   -415.91304817 </i>
    <i name="e_0_energy">   -415.91304817 </i>
   </energy>
  </scstep>
  <scstep>
   <time name="diag">    3.61    3.61</time>
   <time name="diis">   13.08   13.08</time>
   <time name="orth">    0.65    0.65</time>
   <time name="total">   18.34   18.36</time>
   <energy>
    <i name="e_fr_energy">   -416.06128217 </i>
    <i name="e_wo_entrp">   -416.06128217 </i>
    <i name="e_0_energy">   -416.06128217 </i>
   </energy>
  </scstep>
  <scstep>
   <time name="diag">    3.61    3.61</time>
   <time name="diis">   12.93   12.93</time>
   <time name="orth">    0.65    0.65</time>
   <time name="total">   18.19   18.20</time>
   <energy>
    <i name="e_fr_energy">   -416.12827454 </i>
    <i name="e_wo_entrp">   -416.12827454 </i>
    <i name="e_0_energy">   -416.12827454 </i>
   </energy>
  </scstep>
  <scstep>
   <time name="diag">    3.61    3.61</time>
   <time name="diis">   12.92   12.93</time>
   <time name="orth">    0.64    0.65</time>
   <time name="total">   18.18   19.14</time>
   <energy>
    <i name="e_fr_energy">   -416.18766899 </i>
    <i name="e_wo_entrp">   -416.18766899 </i>
    <i name="e_0_energy">   -416.18766899 </i>
   </energy>
  </scstep>
  <scstep>
   <time name="diag">    3.61    3.61</time>
   <time name="diis">   12.70   12.70</time>
   <time name="orth">    0.65    0.65</time>
   <time name="total">   17.96   18.47</time>
   <energy>
    <i name="e_fr_energy">   -416.20552563 </i>
    <i name="e_wo_entrp">   -416.20552563 </i>
    <i name="e_0_energy">   -416.20552563 </i>
   </energy>
  </scstep>
  <scstep>
   <time name="diag">    3.61    3.61</time>
   <time name="diis">   11.91   11.91</time>
   <time name="orth">    0.65    0.65</time>
   <time name="total">   17.17   18.11</time>
   <energy>
    <i name="e_fr_energy">   -416.21364725 </i>
    <i name="e_wo_entrp">   -416.21364725 </i>
    <i name="e_0_energy">   -416.21364725 </i>
   </energy>
  </scstep>
  <scstep>
   <time name="diag">    3.62    3.62</time>
   <time name="diis">   11.86   11.86</time>
   <time name="orth">    0.64    0.64</time>
   <time name="total">   17.13   17.14</time>
   <energy>
    <i name="e_fr_energy">   -416.22059687 </i>
    <i name="e_wo_entrp">   -416.22059687 </i>
    <i name="e_0_energy">   -416.22059687 </i>
   </energy>
  </scstep>
  <scstep>
   <time name="diag">    3.63    3.63</time>
   <time name="diis">    9.70    9.71</time>
   <time name="orth">    0.65    0.65</time>
   <time name="total">   14.98   15.08</time>
   <energy>
    <i name="e_fr_energy">   -416.22230438 </i>
    <i name="e_wo_entrp">   -416.22230438 </i>
    <i name="e_0_energy">   -416.22230438 </i>
   </energy>
  </scstep>
  <scstep>
   <time name="diag">    3.62    3.62</time>
   <time name="diis">    9.41    9.42</time>
   <time name="orth">    0.64    0.65</time>
   <time name="total">   14.68   14.69</time>
   <energy>
    <i name="e_fr_energy">   -416.22301019 </i>
    <i name="e_wo_entrp">   -416.22301019 </i>
    <i name="e_0_energy">   -416.22301019 </i>
   </energy>
  </scstep>
  <scstep>
   <time name="diag">    3.62    3.62</time>
   <time name="diis">    8.60    8.60</time>
   <time name="orth">    0.65    0.65</time>
   <time name="total">   13.87   14.55</time>
   <energy>
    <i name="e_fr_energy">   -416.22337734 </i>
    <i name="e_wo_entrp">   -416.22337734 </i>
    <i name="e_0_energy">   -416.22337734 </i>
   </energy>
  </scstep>
  <scstep>
   <time name="diag">    3.62    3.62</time>
   <time name="diis">    8.34    8.34</time>
   <time name="orth">    0.64    0.64</time>
   <time name="total">   13.60   13.96</time>
   <energy>
    <i name="e_fr_energy">   -416.22356400 </i>
    <i name="e_wo_entrp">   -416.22356400 </i>
    <i name="e_0_energy">   -416.22356400 </i>
   </energy>
  </scstep>
  <scstep>
   <time name="diag">    3.62    3.62</time>
   <time name="diis">    7.53    7.53</time>
   <time name="orth">    0.65    0.65</time>
   <time name="total">   12.80   12.83</time>
   <energy>
    <i name="e_fr_energy">   -416.22366973 </i>
    <i name="e_wo_entrp">   -416.22366973 </i>
    <i name="e_0_energy">   -416.22366973 </i>
   </energy>
  </scstep>
  <scstep>
   <time name="diag">    3.62    3.62</time>
   <time name="diis">    7.26    7.26</time>
   <time name="orth">    0.64    0.65</time>
   <time name="total">   12.53   12.68</time>
   <energy>
    <i name="e_fr_energy">   -416.22380197 </i>
    <i name="e_wo_entrp">   -416.22380197 </i>
    <i name="e_0_energy">   -416.22380197 </i>
   </energy>
  </scstep>
  <scstep>
   <time name="diag">    3.62    3.62</time>
   <time name="diis">    6.58    6.58</time>
   <time name="orth">    0.64    0.65</time>
   <time name="total">   11.14   11.29</time>
   <energy>
    <i name="alphaZ">    634.37545783 </i>
    <i name="ewald">  38113.38033382 </i>
    <i name="hartreedc"> -53348.74447592 </i>
    <i name="XCdc">    336.65260148 </i>
    <i name="pawpsdc">  23542.32447169 </i>
    <i name="pawaedc"> -22960.87959126 </i>
    <i name="eentropy">     -0.00000000 </i>
    <i name="bandstr">  -2085.42091605 </i>
    <i name="atom">  15352.08822555 </i>
    <i name="e_fr_energy">   -416.22389286 </i>
    <i name="e_wo_entrp">   -416.22389286 </i>
    <i name="e_0_energy">   -416.22389286 </i>
   </energy>
  </scstep>
  <structure>
   <crystal>
    <varray name="basis" >
     <v>       0.00000000       0.00000000       5.92135997 </v>
     <v>       4.62995342      -4.62995342       0.00000000 </v>
     <v>      15.82936550      15.82936550       0.00000000 </v>
    </varray>
    <i name="volume">    867.94376550 </i>
    <varray name="rec_basis" >
     <v>       0.00000000       0.00000000       0.16888012 </v>
     <v>       0.10799245      -0.10799245       0.00000000 </v>
     <v>       0.03158686       0.03158686       0.00000000 </v>
    </varray>
   </crystal>
   <varray name="positions" >
    <v>       0.08911189       0.77346320       0.00000000 </v>
    <v>       0.58911189       0.77346320       0.00000000 </v>
    <v>       0.33911189       0.07763320       0.05727859 </v>
    <v>       0.83911189       0.07763320       0.05727859 </v>
    <v>       0.33911189       0.46929320       0.05727859 </v>
    <v>       0.83911189       0.46929320       0.05727859 </v>
    <v>       0.08911189       0.77346320       0.11455719 </v>
    <v>       0.58911189       0.77346320       0.11455719 </v>
    <v>       0.08911189       0.27346320       0.14624570 </v>
    <v>       0.58911189       0.27346320       0.14624570 </v>
    <v>       0.33911189       0.57763320       0.20352430 </v>
    <v>       0.83911189       0.57763320       0.20352430 </v>
    <v>       0.33911189       0.96929320       0.20352430 </v>
    <v>       0.83911189       0.96929320       0.20352430 </v>
    <v>       0.08911189       0.27346320       0.26080289 </v>
    <v>       0.58911189       0.27346320       0.26080289 </v>
    <v>       0.08911189       0.77346320       0.29249141 </v>
    <v>       0.58911189       0.77346320       0.29249141 </v>
    <v>       0.33911189       0.07763320       0.34977000 </v>
    <v>       0.83911189       0.07763320       0.34977000 </v>
    <v>       0.33911189       0.46929320       0.34977000 </v>
    <v>       0.83911189       0.46929320       0.34977000 </v>
    <v>       0.08911189       0.77346320       0.40704859 </v>
    <v>       0.58911189       0.77346320       0.40704859 </v>
    <v>       0.08911189       0.27346320       0.43873711 </v>
    <v>       0.58911189       0.27346320       0.43873711 </v>
    <v>       0.33911189       0.57763320       0.49601571 </v>
    <v>       0.83911189       0.57763320       0.49601571 </v>
    <v>       0.33911189       0.96929320       0.49601571 </v>
    <v>       0.83911189       0.96929320       0.49601571 </v>
    <v>       0.08911189       0.27346320       0.55329430 </v>
    <v>       0.58911189       0.27346320       0.55329430 </v>
    <v>       0.08911189       0.27346320       0.05727859 </v>
    <v>       0.58911189       0.27346320       0.05727859 </v>
    <v>       0.33911189       0.77346320       0.05727859 </v>
    <v>       0.83911189       0.77346320       0.05727859 </v>
    <v>       0.33911189       0.27346320       0.20352430 </v>
    <v>       0.83911189       0.27346320       0.20352430 </v>
    <v>       0.08911189       0.77346320       0.20352430 </v>
    <v>       0.58911189       0.77346320       0.20352430 </v>
    <v>       0.08911189       0.27346320       0.34977000 </v>
    <v>       0.58911189       0.27346320       0.34977000 </v>
    <v>       0.33911189       0.77346320       0.34977000 </v>
    <v>       0.83911189       0.77346320       0.34977000 </v>
    <v>       0.33911189       0.27346320       0.49601571 </v>
    <v>       0.83911189       0.27346320       0.49601571 </v>
    <v>       0.08911189       0.77346320       0.49601571 </v>
    <v>       0.58911189       0.77346320       0.49601571 </v>
   </varray>
  </structure>
  <varray name="forces" >
   <v>       1.30958865       1.30867115      -0.00068109 </v>
   <v>       1.30956209       1.30864468      -0.00068173 </v>
   <v>       0.66755282      -1.77010890      -0.00077667 </v>
   <v>       0.66755341      -1.77010809      -0.00075151 </v>
   <v>      -1.76719036       0.66608469       0.00199696 </v>
   <v>      -1.76719084       0.66608521       0.00202249 </v>
   <v>       1.26387886       1.26428130      -0.00198438 </v>
   <v>       1.26387783       1.26427901      -0.00198333 </v>
   <v>      -1.07116517      -1.06919944      -0.00342333 </v>
   <v>      -1.07114882      -1.06918418      -0.00342128 </v>
   <v>      -0.16750554       0.27687331      -0.00104340 </v>
   <v>      -0.16750657       0.27687358      -0.00104264 </v>
   <v>       0.27649350      -0.16894870       0.00143706 </v>
   <v>       0.27649538      -0.16894947       0.00143763 </v>
   <v>      -0.41474782      -0.41355943      -0.00145149 </v>
   <v>      -0.41474761      -0.41355822      -0.00145142 </v>
   <v>       0.41312538       0.41444221      -0.00055692 </v>
   <v>       0.41312466       0.41444012      -0.00055934 </v>
   <v>      -0.27643578       0.16667768      -0.00112363 </v>
   <v>      -0.27643535       0.16667655      -0.00112340 </v>
   <v>       0.17126869      -0.27581407       0.00050620 </v>
   <v>       0.17126813      -0.27581405       0.00050597 </v>
   <v>       1.07052600       1.07247508      -0.00208819 </v>
   <v>       1.07051491       1.07246445      -0.00209074 </v>
   <v>      -1.26449117      -1.26317029      -0.00308161 </v>
   <v>      -1.26448905      -1.26316786      -0.00308168 </v>
   <v>       1.76919153      -0.66813760      -0.00042092 </v>
   <v>       1.76919107      -0.66813682      -0.00040691 </v>
   <v>      -0.66673064       1.76584677       0.00080031 </v>
   <v>      -0.66672913       1.76584660       0.00081306 </v>
   <v>      -1.30970447      -1.30862726      -0.00075750 </v>
   <v>      -1.30967979      -1.30860277      -0.00075772 </v>
   <v>       2.02061528       2.02238585       0.00149095 </v>
   <v>       2.02060480       2.02237540       0.00149121 </v>
   <v>      -2.35278557      -2.35237390       0.00067660 </v>
   <v>      -2.35278511      -2.35237334       0.00065799 </v>
   <v>       0.54959486       0.54945709       0.00292676 </v>
   <v>       0.54959437       0.54945691       0.00290790 </v>
   <v>      -0.72625655      -0.72587910       0.00144471 </v>
   <v>      -0.72625596      -0.72587863       0.00144526 </v>
   <v>       0.72589769       0.72637276       0.00068173 </v>
   <v>       0.72589784       0.72637291       0.00068160 </v>
   <v>      -0.54915894      -0.54945925       0.00180431 </v>
   <v>      -0.54915917      -0.54945948       0.00179046 </v>
   <v>       2.35188562       2.35285734       0.00194051 </v>
   <v>       2.35188506       2.35285701       0.00192545 </v>
   <v>      -2.02344839      -2.02114725       0.00167801 </v>
   <v>      -2.02344062      -2.02113957       0.00167766 </v>
  </varray>
  <varray name="stress" >
   <v>      -7.29005064     -18.48815059      -0.03539752 </v>
   <v>     -18.48815057      -7.28324043       0.01921376 </v>
   <v>      -0.03539745       0.01921379     -23.33817382 </v>
  </varray>
  <energy>
   <i name="e_fr_energy">   -426.06829906 </i>
   <i name="e_wo_entrp">   -426.06829906 </i>
   <i name="e_0_energy">     -0.00000000 </i>
  </energy>
  <time name="totalsc">  532.21  539.91</time>
 </calculation>
 <calculation>
  <scstep>
   <time name="dav">   21.62   21.63</time>
   <time name="total">   22.63   22.64</time>
   <energy>
    <i name="alphaZ">    634.37545783 </i>
    <i name="ewald">  38130.14269053 </i>
    <i name="hartreedc"> -53363.06450161 </i>
    <i name="XCdc">    336.72560834 </i>
    <i name="pawpsdc">  23541.86274832 </i>
    <i name="pawaedc"> -22960.41747526 </i>
    <i name="eentropy">     -0.00000000 </i>
    <i name="bandstr">  -2088.55023429 </i>
    <i name="atom">  15352.08822555 </i>
    <i name="e_fr_energy">   -416.83748058 </i>
    <i name="e_wo_entrp">   -416.83748058 </i>
    <i name="e_0_energy">   -416.83748058 </i>
   </energy>
  </scstep>
  <scstep>
   <time name="diag">    3.65    3.65</time>
   <time name="diis">   12.79   12.79</time>
   <time name="orth">    0.64    0.65</time>
   <time name="total">   18.09   18.10</time>
   <energy>
    <i name="e_fr_energy">   -416.88169695 </i>
    <i name="e_wo_entrp">   -416.88169695 </i>
    <i name="e_0_energy">   -416.88169695 </i>
   </energy>
  </scstep>
  <scstep>
   <time name="diag">    3.64    3.64</time>
   <time name="diis">   12.99   12.99</time>
   <time name="orth">    0.64    0.65</time>
   <time name="total">   18.28   18.64</time>
   <energy>
    <i name="e_fr_energy">   -416.87660455 </i>
    <i name="e_wo_entrp">   -416.87660455 </i>
    <i name="e_0_energy">   -416.87660455 </i>
   </energy>
  </scstep>
  <scstep>
   <time name="diag">    3.64    3.64</time>
   <time name="diis">   12.57   12.58</time>
   <time name="orth">    0.65    0.65</time>
   <time name="total">   17.87   18.58</time>
   <energy>
    <i name="e_fr_energy">   -416.87255533 </i>
    <i name="e_wo_entrp">   -416.87255533 </i>
    <i name="e_0_energy">   -416.87255533 </i>
   </energy>
  </scstep>
  <scstep>
   <time name="diag">    3.64    3.64</time>
   <time name="diis">   12.66   12.67</time>
   <time name="orth">    0.65    0.65</time>
   <time name="total">   17.96   17.97</time>
   <energy>
    <i name="e_fr_energy">   -416.86621211 </i>
    <i name="e_wo_entrp">   -416.86621211 </i>
    <i name="e_0_energy">   -416.86621211 </i>
   </energy>
  </scstep>
  <scstep>
   <time name="diag">    3.64    3.64</time>
   <time name="diis">   11.56   11.57</time>
   <time name="orth">    0.64    0.65</time>
   <time name="total">   16.87   17.40</time>
   <energy>
    <i name="e_fr_energy">   -416.86560556 </i>
    <i name="e_wo_entrp">   -416.86560556 </i>
    <i name="e_0_energy">   -416.86560556 </i>
   </energy>
  </scstep>
  <scstep>
   <time name="diag">    3.64    3.64</time>
   <time name="diis">    8.93    8.93</time>
   <time name="orth">    0.65    0.65</time>
   <time name="total">   14.23   14.24</time>
   <energy>
    <i name="e_fr_energy">   -416.86519334 </i>
    <i name="e_wo_entrp">   -416.86519334 </i>
    <i name="e_0_energy">   -416.86519334 </i>
   </energy>
  </scstep>
  <scstep>
   <time name="diag">    3.65    3.65</time>
   <time name="diis">   11.31   11.31</time>
   <time name="orth">    0.65    0.65</time>
   <time name="total">   16.60   16.64</time>
   <energy>
    <i name="e_fr_energy">   -416.86494193 </i>
    <i name="e_wo_entrp">   -416.86494193 </i>
    <i name="e_0_energy">   -416.86494193 </i>
   </energy>
  </scstep>
  <scstep>
   <time name="diag">    3.64    3.64</time>
   <time name="diis">    7.95    7.96</time>
   <time name="orth">    0.65    0.65</time>
   <time name="total">   12.54   12.55</time>
   <energy>
    <i name="alphaZ">    634.37545783 </i>
    <i name="ewald">  38130.14269053 </i>
    <i name="hartreedc"> -53368.57909807 </i>
    <i name="XCdc">    336.82679500 </i>
    <i name="pawpsdc">  23607.87981446 </i>
    <i name="pawaedc"> -23026.50888705 </i>
    <i name="eentropy">     -0.00000000 </i>
    <i name="bandstr">  -2083.08997228 </i>
    <i name="atom">  15352.08822555 </i>
    <i name="e_fr_energy">   -416.86497402 </i>
    <i name="e_wo_entrp">   -416.86497402 </i>
    <i name="e_0_energy">   -416.86497402 </i>
   </energy>
  </scstep>
  <structure>
   <crystal>
    <varray name="basis" >
     <v>       0.00000000       0.00000000       5.92135997 </v>
     <v>       4.62995342      -4.62995342       0.00000000 </v>
     <v>      15.82936550      15.82936550       0.00000000 </v>
    </varray>
    <i name="volume">    867.94376550 </i>
    <varray name="rec_basis" >
     <v>       0.00000000       0.00000000       0.16888012 </v>
     <v>       0.10799245      -0.10799245       0.00000000 </v>
     <v>       0.03158686       0.03158686       0.00000000 </v>
    </varray>
   </crystal>
   <varray name="positions" >
    <v>       0.08911189       0.77346320       0.00000000 </v>
    <v>       0.58911189       0.77346320       0.00000000 </v>
    <v>       0.33911189       0.07763320       0.05727859 </v>
    <v>       0.83911189       0.07763320       0.05727859 </v>
    <v>       0.33911189       0.46929320       0.05727859 </v>
    <v>       0.83911189       0.46929320       0.05727859 </v>
    <v>       0.08911189       0.77346320       0.11455719 </v>
    <v>       0.58911189       0.77346320       0.11455719 </v>
    <v>       0.08911189       0.27346320       0.14624570 </v>
    <v>       0.58911189       0.27346320       0.14624570 </v>
    <v>       0.33911189       0.57763320       0.20352430 </v>
    <v>       0.83911189       0.57763320       0.20352430 </v>
    <v>       0.33911189       0.96929320       0.20352430 </v>
    <v>       0.83911189       0.96929320       0.20352430 </v>
    <v>       0.08911189       0.27346320       0.26080289 </v>
    <v>       0.58911189       0.27346320       0.26080289 </v>
    <v>       0.08911099       0.77346183       0.29274362 </v>
    <v>       0.58911098       0.77346183       0.29274362 </v>
    <v>       0.33911006       0.07717149       0.34973655 </v>
    <v>       0.83911006       0.07717149       0.34973655 </v>
    <v>       0.33911272       0.46975904       0.34973814 </v>
    <v>       0.83911272       0.46975904       0.34973814 </v>
    <v>       0.08910849       0.77346117       0.40770171 </v>
    <v>       0.58910849       0.77346117       0.40770170 </v>
    <v>       0.08910687       0.27346182       0.43796677 </v>
    <v>       0.58910687       0.27346182       0.43796677 </v>
    <v>       0.33911121       0.58017282       0.49635127 </v>
    <v>       0.83911123       0.58017282       0.49635127 </v>
    <v>       0.33911320       0.96675853       0.49635068 </v>
    <v>       0.83911322       0.96675853       0.49635068 </v>
    <v>       0.08911066       0.27346208       0.55249632 </v>
    <v>       0.58911066       0.27346208       0.55249633 </v>
    <v>       0.08911189       0.27346320       0.05727859 </v>
    <v>       0.58911189       0.27346320       0.05727859 </v>
    <v>       0.33911189       0.77346320       0.05727859 </v>
    <v>       0.83911189       0.77346320       0.05727859 </v>
    <v>       0.33911189       0.27346320       0.20352430 </v>
    <v>       0.83911189       0.27346320       0.20352430 </v>
    <v>       0.08911189       0.77346320       0.20352430 </v>
    <v>       0.58911189       0.77346320       0.20352430 </v>
    <v>       0.08911301       0.27346270       0.35021261 </v>
    <v>       0.58911301       0.27346270       0.35021261 </v>
    <v>       0.33911483       0.77346351       0.34943518 </v>
    <v>       0.83911481       0.77346351       0.34943518 </v>
    <v>       0.33911506       0.27346219       0.49744956 </v>
    <v>       0.83911503       0.27346219       0.49744956 </v>
    <v>       0.08911463       0.77346080       0.49478305 </v>
    <v>       0.58911463       0.77346080       0.49478305 </v>
   </varray>
  </structure>
  <varray name="forces" >
   <v>       1.31194089       1.31102999      -0.00049355 </v>
   <v>       1.31194073       1.31102981      -0.00049358 </v>
   <v>       0.65872382      -1.76815242      -0.00057385 </v>
   <v>       0.65872389      -1.76815241      -0.00057321 </v>
   <v>      -1.76524950       0.65726939       0.00219610 </v>
   <v>      -1.76524946       0.65726928       0.00219686 </v>
   <v>       1.28031341       1.28073191      -0.00179612 </v>
   <v>       1.28031436       1.28073277      -0.00179609 </v>
   <v>      -1.10613058      -1.10415592      -0.00323502 </v>
   <v>      -1.10613267      -1.10415798      -0.00323488 </v>
   <v>      -0.12057231       0.24469808      -0.00085982 </v>
   <v>      -0.12057237       0.24469804      -0.00086047 </v>
   <v>       0.24431251      -0.12198797       0.00162068 </v>
   <v>       0.24431256      -0.12198785       0.00162008 </v>
   <v>      -0.46839089      -0.46724628      -0.00128235 </v>
   <v>      -0.46839077      -0.46724624      -0.00128239 </v>
   <v>       0.37927347       0.37959887      -0.00108970 </v>
   <v>       0.37927328       0.37959863      -0.00108921 </v>
   <v>      -0.32803116       0.17619006      -0.00022586 </v>
   <v>      -0.32803130       0.17619021      -0.00022686 </v>
   <v>       0.18031610      -0.32743623       0.00087328 </v>
   <v>       0.18031647      -0.32743629       0.00087240 </v>
   <v>       0.77878332       0.78033659      -0.00365283 </v>
   <v>       0.77878583       0.78033904      -0.00365243 </v>
   <v>      -0.85328960      -0.85136576      -0.00302900 </v>
   <v>      -0.85328939      -0.85136563      -0.00302863 </v>
   <v>       1.29737927      -0.17615861      -0.00304467 </v>
   <v>       1.29737907      -0.17615888      -0.00304801 </v>
   <v>      -0.17643383       1.29836504       0.00247258 </v>
   <v>      -0.17643367       1.29836555       0.00246918 </v>
   <v>      -0.98580416      -0.98571999      -0.00132200 </v>
   <v>      -0.98580693      -0.98572194      -0.00132165 </v>
   <v>       2.03818220       2.03996654       0.00167993 </v>
   <v>       2.03818397       2.03996830       0.00167993 </v>
   <v>      -2.35718733      -2.35676228       0.00085743 </v>
   <v>      -2.35718730      -2.35676224       0.00085544 </v>
   <v>       0.63105782       0.63091877       0.00310469 </v>
   <v>       0.63105785       0.63091871       0.00310731 </v>
   <v>      -0.77414522      -0.77373943       0.00163295 </v>
   <v>      -0.77414614      -0.77374031       0.00163290 </v>
   <v>       0.74446969       0.74412364       0.00181521 </v>
   <v>       0.74446868       0.74412265       0.00181504 </v>
   <v>      -0.43793632      -0.43666591       0.00165180 </v>
   <v>      -0.43793635      -0.43666586       0.00165668 </v>
   <v>       1.66426006       1.66238150       0.00133942 </v>
   <v>       1.66426002       1.66238136       0.00133895 </v>
   <v>      -1.83584081      -1.83621892       0.00136160 </v>
   <v>      -1.83584123      -1.83621937       0.00136174 </v>
  </varray>
  <varray name="stress" >
   <v>      -5.94959215     -17.16609597      -0.02121538 </v>
   <v>     -17.16609615      -5.94697491       0.04095024 </v>
   <v>      -0.02121539       0.04095037     -21.10431162 </v>
  </varray>
  <energy>
   <i name="e_fr_energy">   -426.70836570 </i>
   <i name="e_wo_entrp">   -426.70836570 </i>
   <i name="e_0_energy">     -0.00000000 </i>
  </energy>
  <time name="totalsc">  180.54  183.07</time>
 </calculation>
 <calculation>
  <scstep>
   <time name="dav">   21.78   21.79</time>
   <time name="total">   22.79   22.80</time>
   <energy>
    <i name="alphaZ">    634.37545783 </i>
    <i name="ewald">  38175.18331914 </i>
    <i name="hartreedc"> -53405.60342738 </i>
    <i name="XCdc">    336.98521790 </i>
    <i name="pawpsdc">  23607.93877132 </i>
    <i name="pawaedc"> -23026.56825952 </i>
    <i name="eentropy">     -0.00000000 </i>
    <i name="bandstr">  -2091.84139562 </i>
    <i name="atom">  15352.08822555 </i>
    <i name="e_fr_energy">   -417.44209079 </i>
    <i name="e_wo_entrp">   -417.44209079 </i>
    <i name="e_0_energy">   -417.44209079 </i>
   </energy>
  </scstep>
  <scstep>
   <time name="diag">    3.63    3.63</time>
   <time name="diis">   12.90   12.90</time>
   <time name="orth">    0.65    0.65</time>
   <time name="total">   18.19   18.52</time>
   <energy>
    <i name="e_fr_energy">   -417.74082106 </i>
    <i name="e_wo_entrp">   -417.74082106 </i>
    <i name="e_0_energy">   -417.74082106 </i>
   </energy>
  </scstep>
  <scstep>
   <time name="diag">    3.64    3.64</time>
   <time name="diis">   13.30   13.30</time>
   <time name="orth">    0.65    0.65</time>
   <time name="total">   18.60   19.12</time>
   <energy>
    <i name="e_fr_energy">   -417.71633724 </i>
    <i name="e_wo_entrp">   -417.71633724 </i>
    <i name="e_0_energy">   -417.71633724 </i>
   </energy>
  </scstep>
  <scstep>
   <time name="diag">    3.64    3.64</time>
   <time name="diis">   12.88   12.89</time>
   <time name="orth">    0.65    0.65</time>
   <time name="total">   18.18   18.91</time>
   <energy>
    <i name="e_fr_energy">   -417.65914206 </i>
    <i name="e_wo_entrp">   -417.65914206 </i>
    <i name="e_0_energy">   -417.65914206 </i>
   </energy>
  </scstep>
  <scstep>
   <time name="diag">    3.63    3.63</time>
   <time name="diis">   12.96   12.97</time>
   <time name="orth">    0.65    0.65</time>
   <time name="total">   18.25   18.26</time>
   <energy>
    <i name="e_fr_energy">   -417.63655400 </i>
    <i name="e_wo_entrp">   -417.63655400 </i>
    <i name="e_0_energy">   -417.63655400 </i>
   </energy>
  </scstep>
  <scstep>
   <time name="diag">    3.63    3.63</time>
   <time name="diis">   12.85   12.85</time>
   <time name="orth">    0.65    0.65</time>
   <time name="total">   18.13   18.30</time>
   <energy>
    <i name="e_fr_energy">   -417.62596171 </i>
    <i name="e_wo_entrp">   -417.62596171 </i>
    <i name="e_0_energy">   -417.62596171 </i>
   </energy>
  </scstep>
  <scstep>
   <time name="diag">    3.63    3.63</time>
   <time name="diis">   12.26   12.26</time>
   <time name="orth">    0.64    0.65</time>
   <time name="total">   17.54   17.55</time>
   <energy>
    <i name="e_fr_energy">   -417.61566195 </i>
    <i name="e_wo_entrp">   -417.61566195 </i>
    <i name="e_0_energy">   -417.61566195 </i>
   </energy>
  </scstep>
  <scstep>
   <time name="diag">    3.64    3.64</time>
   <time name="diis">   12.57   12.58</time>
   <time name="orth">    0.65    0.65</time>
   <time name="total">   17.86   18.39</time>
   <energy>
    <i name="e_fr_energy">   -417.60982330 </i>
    <i name="e_wo_entrp">   -417.60982330 </i>
    <i name="e_0_energy">   -417.60982330 </i>
   </energy>
  </scstep>
  <scstep>
   <time name="diag">    3.64    3.64</time>
   <time name="diis">   11.76   11.77</time>
   <time name="orth">    0.65    0.65</time>
   <time name="total">   17.05   17.30</time>
   <energy>
    <i name="e_fr_energy">   -417.61002490 </i>
    <i name="e_wo_entrp">   -417.61002490 </i>
    <i name="e_0_energy">   -417.61002490 </i>
   </energy>
  </scstep>
  <scstep>
   <time name="diag">    3.63    3.63</time>
   <time name="diis">    8.77    8.78</time>
   <time name="orth">    0.64    0.65</time>
   <time name="total">   14.06   14.06</time>
   <energy>
    <i name="e_fr_energy">   -417.61013501 </i>
    <i name="e_wo_entrp">   -417.61013501 </i>
    <i name="e_0_energy">   -417.61013501 </i>
   </energy>
  </scstep>
  <scstep>
   <time name="diag">    3.63    3.63</time>
   <time name="diis">    8.23    8.24</time>
   <time name="orth">    0.65    0.65</time>
   <time name="total">   13.52   13.53</time>
   <energy>
    <i name="e_fr_energy">   -417.61037564 </i>
    <i name="e_wo_entrp">   -417.61037564 </i>
    <i name="e_0_energy">   -417.61037564 </i>
   </energy>
  </scstep>
  <scstep>
   <time name="diag">    3.64    3.64</time>
   <time name="diis">    8.09    8.10</time>
   <time name="orth">    0.65    0.65</time>
   <time name="total">   13.38   13.41</time>
   <energy>
    <i name="e_fr_energy">   -417.61049840 </i>
    <i name="e_wo_entrp">   -417.61049840 </i>
    <i name="e_0_energy">   -417.61049840 </i>
   </energy>
  </scstep>
  <scstep>
   <time name="diag">    3.63    3.63</time>
   <time name="diis">    7.39    7.39</time>
   <time name="orth">    0.65    0.65</time>
   <time name="total">   11.97   11.98</time>
   <energy>
    <i name="alphaZ">    634.37545783 </i>
    <i name="ewald">  38175.18331914 </i>
    <i name="hartreedc"> -53423.13445630 </i>
    <i name="XCdc">    337.25121577 </i>
    <i name="pawpsdc">  23931.49645342 </i>
    <i name="pawaedc"> -23350.50165169 </i>
    <i name="eentropy">     -0.00000000 </i>
    <i name="bandstr">  -2074.36912661 </i>
    <i name="atom">  15352.08822555 </i>
    <i name="e_fr_energy">   -417.61056288 </i>
    <i name="e_wo_entrp">   -417.61056288 </i>
    <i name="e_0_energy">   -417.61056288 </i>
   </energy>
  </scstep>
  <structure>
   <crystal>
    <varray name="basis" >
     <v>       0.00000000       0.00000000       5.92135997 </v>
     <v>       4.62995342      -4.62995342       0.00000000 </v>
     <v>      15.82936550      15.82936550       0.00000000 </v>
    </varray>
    <i name="volume">    867.94376550 </i>
    <varray name="rec_basis" >
     <v>       0.00000000       0.00000000       0.16888012 </v>
     <v>       0.10799245      -0.10799245       0.00000000 </v>
     <v>       0.03158686       0.03158686       0.00000000 </v>
    </varray>
   </crystal>
   <varray name="positions" >
    <v>       0.08911189       0.77346320       0.00000000 </v>
    <v>       0.58911189       0.77346320       0.00000000 </v>
    <v>       0.33911189       0.07763320       0.05727859 </v>
    <v>       0.83911189       0.07763320       0.05727859 </v>
    <v>       0.33911189       0.46929320       0.05727859 </v>
    <v>       0.83911189       0.46929320       0.05727859 </v>
    <v>       0.08911189       0.77346320       0.11455719 </v>
    <v>       0.58911189       0.77346320       0.11455719 </v>
    <v>       0.08911189       0.27346320       0.14624570 </v>
    <v>       0.58911189       0.27346320       0.14624570 </v>
    <v>       0.33911189       0.57763320       0.20352430 </v>
    <v>       0.83911189       0.57763320       0.20352430 </v>
    <v>       0.33911189       0.96929320       0.20352430 </v>
    <v>       0.83911189       0.96929320       0.20352430 </v>
    <v>       0.08911189       0.27346320       0.26080289 </v>
    <v>       0.58911189       0.27346320       0.26080289 </v>
    <v>       0.08910869       0.77345836       0.29338122 </v>
    <v>       0.58910868       0.77345836       0.29338121 </v>
    <v>       0.33910544       0.07600430       0.34965199 </v>
    <v>       0.83910544       0.07600430       0.34965199 </v>
    <v>       0.33911480       0.47093669       0.34965759 </v>
    <v>       0.83911480       0.47093669       0.34965759 </v>
    <v>       0.08909989       0.77345603       0.40935277 </v>
    <v>       0.58909988       0.77345603       0.40935274 </v>
    <v>       0.08909418       0.27345834       0.43601935 </v>
    <v>       0.58909418       0.27345834       0.43601935 </v>
    <v>       0.33910947       0.58659291       0.49719957 </v>
    <v>       0.83910956       0.58659290       0.49719957 </v>
    <v>       0.33911650       0.96035096       0.49719749 </v>
    <v>       0.83911657       0.96035096       0.49719749 </v>
    <v>       0.08910754       0.27345924       0.55047905 </v>
    <v>       0.58910754       0.27345924       0.55047910 </v>
    <v>       0.08911189       0.27346320       0.05727859 </v>
    <v>       0.58911189       0.27346320       0.05727859 </v>
    <v>       0.33911189       0.77346320       0.05727859 </v>
    <v>       0.83911189       0.77346320       0.05727859 </v>
    <v>       0.33911189       0.27346320       0.20352430 </v>
    <v>       0.83911189       0.27346320       0.20352430 </v>
    <v>       0.08911189       0.77346320       0.20352430 </v>
    <v>       0.58911189       0.77346320       0.20352430 </v>
    <v>       0.08911581       0.27346145       0.35133150 </v>
    <v>       0.58911581       0.27346145       0.35133150 </v>
    <v>       0.33912227       0.77346430       0.34858876 </v>
    <v>       0.83912219       0.77346430       0.34858876 </v>
    <v>       0.33912305       0.27345963       0.50107429 </v>
    <v>       0.83912296       0.27345963       0.50107429 </v>
    <v>       0.08912154       0.77345474       0.49166692 </v>
    <v>       0.58912154       0.77345474       0.49166694 </v>
   </varray>
  </structure>
  <varray name="forces" >
   <v>       1.31337493       1.31215958      -0.00029792 </v>
   <v>       1.31337490       1.31215954      -0.00029790 </v>
   <v>       0.63941984      -1.76179035      -0.00037574 </v>
   <v>       0.63941985      -1.76179036      -0.00037566 </v>
   <v>      -1.75859808       0.63764858       0.00239624 </v>
   <v>      -1.75859808       0.63764857       0.00239629 </v>
   <v>       1.32151533       1.32164298      -0.00159872 </v>
   <v>       1.32151556       1.32164321      -0.00159874 </v>
   <v>      -1.19199039      -1.19028811      -0.00303854 </v>
   <v>      -1.19199028      -1.19028800      -0.00303852 </v>
   <v>      -0.00249077       0.16783681      -0.00067441 </v>
   <v>      -0.00249069       0.16783686      -0.00067503 </v>
   <v>       0.16776637      -0.00417663       0.00180785 </v>
   <v>       0.16776640      -0.00417654       0.00180725 </v>
   <v>      -0.59834037      -0.59761484      -0.00112806 </v>
   <v>      -0.59833942      -0.59761388      -0.00112807 </v>
   <v>       0.26601461       0.26685434      -0.00182762 </v>
   <v>       0.26601310       0.26685309      -0.00182560 </v>
   <v>      -0.46266312       0.22943951      -0.00016254 </v>
   <v>      -0.46266398       0.22944051      -0.00016454 </v>
   <v>       0.23108934      -0.46367850       0.00205634 </v>
   <v>       0.23109009      -0.46367916       0.00205448 </v>
   <v>      -0.37047227      -0.37121102      -0.00113778 </v>
   <v>      -0.37045738      -0.37119615      -0.00113601 </v>
   <v>       0.17599189       0.17643765      -0.00081787 </v>
   <v>       0.17599477       0.17644045      -0.00081778 </v>
   <v>       0.10373042       1.15674817      -0.00248437 </v>
   <v>       0.10373095       1.15674730      -0.00250117 </v>
   <v>       1.15294179       0.10724995      -0.00331986 </v>
   <v>       1.15294071       0.10725048      -0.00333609 </v>
   <v>       0.21964826       0.22039476      -0.00325158 </v>
   <v>       0.21963858       0.22038498      -0.00325140 </v>
   <v>       2.08321914       2.08470992       0.00187892 </v>
   <v>       2.08321912       2.08470989       0.00187892 </v>
   <v>      -2.36626254      -2.36612865       0.00105563 </v>
   <v>      -2.36626255      -2.36612865       0.00105586 </v>
   <v>       0.82881390       0.82834735       0.00330417 </v>
   <v>       0.82881390       0.82834734       0.00330489 </v>
   <v>      -0.88864220      -0.88849371       0.00183005 </v>
   <v>      -0.88864492      -0.88849641       0.00182995 </v>
   <v>       0.62753230       0.62683173       0.00212842 </v>
   <v>       0.62752910       0.62682857       0.00212778 </v>
   <v>      -0.17887094      -0.17993796       0.00010271 </v>
   <v>      -0.17887108      -0.17993809       0.00011902 </v>
   <v>      -0.40295575      -0.40250965       0.00253754 </v>
   <v>      -0.40295559      -0.40250954       0.00254103 </v>
   <v>      -0.90976910      -0.91046976       0.00102365 </v>
   <v>      -0.90977568      -0.91047614       0.00102454 </v>
  </varray>
  <varray name="stress" >
   <v>       0.70291199      -9.63153102      -0.03021515 </v>
   <v>      -9.63153112       0.68480271       0.04583625 </v>
   <v>      -0.03021503       0.04583605      -7.36933130 </v>
  </varray>
  <energy>
   <i name="e_fr_energy">   -427.45104035 </i>
   <i name="e_wo_entrp">   -427.45104035 </i>
   <i name="e_0_energy">     -0.00000000 </i>
  </energy>
  <time name="totalsc">  244.98  248.16</time>
 </calculation>
 <calculation>
  <scstep>
   <time name="dav">   21.75   21.75</time>
   <time name="total">   22.75   22.76</time>
   <energy>
    <i name="alphaZ">    634.37545783 </i>
    <i name="ewald">  38151.60521922 </i>
    <i name="hartreedc"> -53399.21035383 </i>
    <i name="XCdc">    337.26877956 </i>
    <i name="pawpsdc">  23931.42861167 </i>
    <i name="pawaedc"> -23350.43085973 </i>
    <i name="eentropy">     -0.00000000 </i>
    <i name="bandstr">  -2074.88527722 </i>
    <i name="atom">  15352.08822555 </i>
    <i name="e_fr_energy">   -417.76019694 </i>
    <i name="e_wo_entrp">   -417.76019694 </i>
    <i name="e_0_energy">   -417.76019694 </i>
   </energy>
  </scstep>
  <scstep>
   <time name="diag">    3.65    3.65</time>
   <time name="diis">   12.89   12.90</time>
   <time name="orth">    0.65    0.65</time>
   <time name="total">   18.19   18.21</time>
   <energy>
    <i name="e_fr_energy">   -417.77627460 </i>
    <i name="e_wo_entrp">   -417.77627460 </i>
    <i name="e_0_energy">   -417.77627460 </i>
   </energy>
  </scstep>
  <scstep>
   <time name="diag">    3.65    3.65</time>
   <time name="diis">   12.74   12.75</time>
   <time name="orth">    0.64    0.65</time>
   <time name="total">   18.04   18.05</time>
   <energy>
    <i name="e_fr_energy">   -417.77272532 </i>
    <i name="e_wo_entrp">   -417.77272532 </i>
    <i name="e_0_energy">   -417.77272532 </i>
   </energy>
  </scstep>
  <scstep>
   <time name="diag">    3.65    3.65</time>
   <time name="diis">   12.67   12.68</time>
   <time name="orth">    0.64    0.65</time>
   <time name="total">   17.96   17.98</time>
   <energy>
    <i name="e_fr_energy">   -417.76988921 </i>
    <i name="e_wo_entrp">   -417.76988921 </i>
    <i name="e_0_energy">   -417.76988921 </i>
   </energy>
  </scstep>
  <scstep>
   <time name="diag">    3.63    3.64</time>
   <time name="diis">   12.50   12.50</time>
   <time name="orth">    0.65    0.65</time>
   <time name="total">   17.77   18.14</time>
   <energy>
    <i name="e_fr_energy">   -417.76923658 </i>
    <i name="e_wo_entrp">   -417.76923658 </i>
    <i name="e_0_energy">   -417.76923658 </i>
   </energy>
  </scstep>
  <scstep>
   <time name="diag">    3.63    3.63</time>
   <time name="diis">    8.66    8.67</time>
   <time name="orth">    0.65    0.65</time>
   <time name="total">   13.25   13.62</time>
   <energy>
    <i name="alphaZ">    634.37545783 </i>
    <i name="ewald">  38151.60521922 </i>
    <i name="hartreedc"> -53393.03072104 </i>
    <i name="XCdc">    337.28499208 </i>
    <i name="pawpsdc">  23964.04209576 </i>
    <i name="pawaedc"> -23383.07383608 </i>
    <i name="eentropy">     -0.00000000 </i>
    <i name="bandstr">  -2081.06071965 </i>
    <i name="atom">  15352.08822555 </i>
    <i name="e_fr_energy">   -417.76928633 </i>
    <i name="e_wo_entrp">   -417.76928633 </i>
    <i name="e_0_energy">   -417.76928633 </i>
   </energy>
  </scstep>
  <structure>
   <crystal>
    <varray name="basis" >
     <v>       0.00000000       0.00000000       5.92135997 </v>
     <v>       4.62995342      -4.62995342       0.00000000 </v>
     <v>      15.82936550      15.82936550       0.00000000 </v>
    </varray>
    <i name="volume">    867.94376550 </i>
    <varray name="rec_basis" >
     <v>       0.00000000       0.00000000       0.16888012 </v>
     <v>       0.10799245      -0.10799245       0.00000000 </v>
     <v>       0.03158686       0.03158686       0.00000000 </v>
    </varray>
   </crystal>
   <varray name="positions" >
    <v>       0.08911189       0.77346320       0.00000000 </v>
    <v>       0.58911189       0.77346320       0.00000000 </v>
    <v>       0.33911189       0.07763320       0.05727859 </v>
    <v>       0.83911189       0.07763320       0.05727859 </v>
    <v>       0.33911189       0.46929320       0.05727859 </v>
    <v>       0.83911189       0.46929320       0.05727859 </v>
    <v>       0.08911189       0.77346320       0.11455719 </v>
    <v>       0.58911189       0.77346320       0.11455719 </v>
    <v>       0.08911189       0.27346320       0.14624570 </v>
    <v>       0.58911189       0.27346320       0.14624570 </v>
    <v>       0.33911189       0.57763320       0.20352430 </v>
    <v>       0.83911189       0.57763320       0.20352430 </v>
    <v>       0.33911189       0.96929320       0.20352430 </v>
    <v>       0.83911189       0.96929320       0.20352430 </v>
    <v>       0.08911189       0.27346320       0.26080289 </v>
    <v>       0.58911189       0.27346320       0.26080289 </v>
    <v>       0.08910398       0.77345670       0.29368817 </v>
    <v>       0.58910397       0.77345671       0.29368817 </v>
    <v>       0.33910458       0.07480422       0.34953669 </v>
    <v>       0.83910458       0.07480422       0.34953669 </v>
    <v>       0.33912005       0.47214197       0.34954298 </v>
    <v>       0.83912005       0.47214197       0.34954298 </v>
    <v>       0.08909626       0.77345669       0.40917415 </v>
    <v>       0.58909625       0.77345669       0.40917414 </v>
    <v>       0.08909093       0.27345730       0.43599033 </v>
    <v>       0.58909093       0.27345730       0.43599034 </v>
    <v>       0.33910321       0.58556975       0.49786103 </v>
    <v>       0.83910325       0.58556975       0.49786103 </v>
    <v>       0.33910867       0.96136385       0.49785867 </v>
    <v>       0.83910871       0.96136385       0.49785867 </v>
    <v>       0.08909926       0.27345779       0.55048339 </v>
    <v>       0.58909926       0.27345779       0.55048343 </v>
    <v>       0.08911189       0.27346320       0.05727859 </v>
    <v>       0.58911189       0.27346320       0.05727859 </v>
    <v>       0.33911189       0.77346320       0.05727859 </v>
    <v>       0.83911189       0.77346320       0.05727859 </v>
    <v>       0.33911189       0.27346320       0.20352430 </v>
    <v>       0.83911189       0.27346320       0.20352430 </v>
    <v>       0.08911189       0.77346320       0.20352430 </v>
    <v>       0.58911189       0.77346320       0.20352430 </v>
    <v>       0.08912131       0.27346243       0.35201665 </v>
    <v>       0.58912131       0.27346243       0.35201665 </v>
    <v>       0.33912325       0.77346605       0.34834122 </v>
    <v>       0.83912320       0.77346605       0.34834122 </v>
    <v>       0.33913006       0.27345868       0.50105971 </v>
    <v>       0.83912997       0.27345867       0.50105971 </v>
    <v>       0.08912473       0.77345524       0.49052649 </v>
    <v>       0.58912473       0.77345524       0.49052651 </v>
   </varray>
  </structure>
  <varray name="forces" >
   <v>       1.32187846       1.32092140      -0.00033798 </v>
   <v>       1.32187847       1.32092141      -0.00033799 </v>
   <v>       0.63888565      -1.75581205      -0.00041958 </v>
   <v>       0.63888565      -1.75581206      -0.00041958 </v>
   <v>      -1.75281858       0.63732880       0.00235240 </v>
   <v>      -1.75281859       0.63732880       0.00235241 </v>
   <v>       1.34657728       1.34691353      -0.00164979 </v>
   <v>       1.34657729       1.34691353      -0.00164977 </v>
   <v>      -1.20537732      -1.20346396      -0.00308266 </v>
   <v>      -1.20537732      -1.20346396      -0.00308264 </v>
   <v>       0.03712982       0.14855106      -0.00074288 </v>
   <v>       0.03712987       0.14855110      -0.00074314 </v>
   <v>       0.14829221       0.03567426       0.00173931 </v>
   <v>       0.14829222       0.03567433       0.00173918 </v>
   <v>      -0.56082078      -0.55991635      -0.00118013 </v>
   <v>      -0.56081984      -0.55991537      -0.00118014 </v>
   <v>       0.14026900       0.14108590      -0.00142000 </v>
   <v>       0.14026857       0.14108571      -0.00141866 </v>
   <v>      -0.27528775       0.11913900       0.00176359 </v>
   <v>      -0.27528828       0.11913961       0.00176213 </v>
   <v>       0.11957084      -0.27880715       0.00028604 </v>
   <v>       0.11957119      -0.27880734       0.00028453 </v>
   <v>      -0.50918099      -0.50854194      -0.00104221 </v>
   <v>      -0.50917202      -0.50853298      -0.00104088 </v>
   <v>       0.17615172       0.17640110      -0.00105118 </v>
   <v>       0.17615288       0.17640214      -0.00105107 </v>
   <v>       0.15678287       0.86552030      -0.00199686 </v>
   <v>       0.15678309       0.86551983      -0.00200576 </v>
   <v>       0.86270987       0.15893132      -0.00231043 </v>
   <v>       0.86270914       0.15893162      -0.00231900 </v>
   <v>       0.16803487       0.16918828      -0.00238706 </v>
   <v>       0.16802687       0.16918011      -0.00238690 </v>
   <v>       2.08290326       2.08459692       0.00183308 </v>
   <v>       2.08290327       2.08459695       0.00183308 </v>
   <v>      -2.38235040      -2.38200912       0.00101051 </v>
   <v>      -2.38235039      -2.38200912       0.00101054 </v>
   <v>       0.87931633       0.87903788       0.00325911 </v>
   <v>       0.87931634       0.87903790       0.00326028 </v>
   <v>      -0.92226493      -0.92188695       0.00178471 </v>
   <v>      -0.92226641      -0.92188843       0.00178464 </v>
   <v>       0.40634037       0.40432682       0.00123627 </v>
   <v>       0.40633840       0.40432486       0.00123627 </v>
   <v>      -0.22048803      -0.22039676      -0.00084946 </v>
   <v>      -0.22048808      -0.22039682      -0.00084102 </v>
   <v>      -0.19912003      -0.19882665       0.00191719 </v>
   <v>      -0.19911990      -0.19882660       0.00192053 </v>
   <v>      -0.45713049      -0.45795292       0.00129037 </v>
   <v>      -0.45713572      -0.45795795       0.00129061 </v>
  </varray>
  <varray name="stress" >
   <v>       1.90815287      -6.84162622      -0.02911058 </v>
   <v>      -6.84162627       1.90986435       0.06004825 </v>
   <v>      -0.02911057       0.06004836      -8.61036834 </v>
  </varray>
  <energy>
   <i name="e_fr_energy">   -427.61374770 </i>
   <i name="e_wo_entrp">   -427.61374770 </i>
   <i name="e_0_energy">     -0.00000000 </i>
  </energy>
  <time name="totalsc">  133.36  134.72</time>
 </calculation>
 <calculation>
  <scstep>
   <time name="dav">   21.76   21.76</time>
   <time name="total">   22.76   22.77</time>
   <energy>
    <i name="alphaZ">    634.37545783 </i>
    <i name="ewald">  38113.88874981 </i>
    <i name="hartreedc"> -53353.86303044 </i>
    <i name="XCdc">    337.28530990 </i>
    <i name="pawpsdc">  23964.82749202 </i>
    <i name="pawaedc"> -23383.85763801 </i>
    <i name="eentropy">     -0.00000000 </i>
    <i name="bandstr">  -2082.59780076 </i>
    <i name="atom">  15352.08822555 </i>
    <i name="e_fr_energy">   -417.85323409 </i>
    <i name="e_wo_entrp">   -417.85323409 </i>
    <i name="e_0_energy">   -417.85323409 </i>
   </energy>
  </scstep>
  <scstep>
   <time name="diag">    3.62    3.62</time>
   <time name="diis">   12.88   12.89</time>
   <time name="orth">    0.65    0.65</time>
   <time name="total">   18.16   18.17</time>
   <energy>
    <i name="e_fr_energy">   -417.89354874 </i>
    <i name="e_wo_entrp">   -417.89354874 </i>
    <i name="e_0_energy">   -417.89354874 </i>
   </energy>
  </scstep>
  <scstep>
   <time name="diag">    3.63    3.63</time>
   <time name="diis">   12.90   12.90</time>
   <time name="orth">    0.65    0.65</time>
   <time name="total">   18.18   18.20</time>
   <energy>
    <i name="e_fr_energy">   -417.88400642 </i>
    <i name="e_wo_entrp">   -417.88400642 </i>
    <i name="e_0_energy">   -417.88400642 </i>
   </energy>
  </scstep>
  <scstep>
   <time name="diag">    3.63    3.63</time>
   <time name="diis">   12.83   12.84</time>
   <time name="orth">    0.65    0.65</time>
   <time name="total">   18.10   18.90</time>
   <energy>
    <i name="e_fr_energy">   -417.87699245 </i>
    <i name="e_wo_entrp">   -417.87699245 </i>
    <i name="e_0_energy">   -417.87699245 </i>
   </energy>
  </scstep>
  <scstep>
   <time name="diag">    3.62    3.62</time>
   <time name="diis">   12.84   12.84</time>
   <time name="orth">    0.65    0.65</time>
   <time name="total">   18.11   18.12</time>
   <energy>
    <i name="e_fr_energy">   -417.87536746 </i>
    <i name="e_wo_entrp">   -417.87536746 </i>
    <i name="e_0_energy">   -417.87536746 </i>
   </energy>
  </scstep>
  <scstep>
   <time name="diag">    3.62    3.62</time>
   <time name="diis">   10.65   10.65</time>
   <time name="orth">    0.65    0.65</time>
   <time name="total">   15.91   15.92</time>
   <energy>
    <i name="e_fr_energy">   -417.87551208 </i>
    <i name="e_wo_entrp">   -417.87551208 </i>
    <i name="e_0_energy">   -417.87551208 </i>
   </energy>
  </scstep>
  <scstep>
   <time name="diag">    3.63    3.63</time>
   <time name="diis">   10.27   10.28</time>
   <time name="orth">    0.64    0.65</time>
   <time name="total">   15.55   15.86</time>
   <energy>
    <i name="e_fr_energy">   -417.87571501 </i>
    <i name="e_wo_entrp">   -417.87571501 </i>
    <i name="e_0_energy">   -417.87571501 </i>
   </energy>
  </scstep>
  <scstep>
   <time name="diag">    3.62    3.62</time>
   <time name="diis">    9.13    9.14</time>
   <time name="orth">    0.64    0.64</time>
   <time name="total">   14.40   14.41</time>
   <energy>
    <i name="e_fr_energy">   -417.87601526 </i>
    <i name="e_wo_entrp">   -417.87601526 </i>
    <i name="e_0_energy">   -417.87601526 </i>
   </energy>
  </scstep>
  <scstep>
   <time name="diag">    3.62    3.62</time>
   <time name="diis">    7.76    7.77</time>
   <time name="orth">    0.64    0.64</time>
   <time name="total">   12.33   12.39</time>
   <energy>
    <i name="alphaZ">    634.37545783 </i>
    <i name="ewald">  38113.88874981 </i>
    <i name="hartreedc"> -53342.54928545 </i>
    <i name="XCdc">    337.28525011 </i>
    <i name="pawpsdc">  24029.23031083 </i>
    <i name="pawaedc"> -23448.31149948 </i>
    <i name="eentropy">     -0.00000000 </i>
    <i name="bandstr">  -2093.88328251 </i>
    <i name="atom">  15352.08822555 </i>
    <i name="e_fr_energy">   -417.87607329 </i>
    <i name="e_wo_entrp">   -417.87607329 </i>
    <i name="e_0_energy">   -417.87607329 </i>
   </energy>
  </scstep>
  <structure>
   <crystal>
    <varray name="basis" >
[...]
       <r>   -20.6013     0.0000     0.0000 </r>
       <r>   -20.5178     0.0000     0.0000 </r>
       <r>   -20.4342     0.0000     0.0000 </r>
       <r>   -20.3507     0.0000     0.0000 </r>
       <r>   -20.2672     0.0522     0.0044 </r>
       <r>   -20.1836     1.0022     0.0881 </r>
       <r>   -20.1001     2.3359     0.2832 </r>
       <r>   -20.0165     3.8751     0.6070 </r>
       <r>   -19.9330     2.0406     0.7774 </r>
       <r>   -19.8495     1.4689     0.9001 </r>
       <r>   -19.7659     4.4154     1.2690 </r>
       <r>   -19.6824     7.3550     1.8834 </r>
       <r>   -19.5988     4.1457     2.2298 </r>
       <r>   -19.5153     9.4978     3.0232 </r>
       <r>   -19.4318    17.8491     4.5143 </r>
       <r>   -19.3482    16.9461     5.9300 </r>
       <r>   -19.2647     9.3784     6.7135 </r>
       <r>   -19.1811    18.3003     8.2423 </r>
       <r>   -19.0976    15.7863     9.5611 </r>
       <r>   -19.0141    21.8863    11.3895 </r>
       <r>   -18.9305    26.1692    13.5757 </r>
       <r>   -18.8470    25.4121    15.6986 </r>
       <r>   -18.7634    23.5648    17.6672 </r>
       <r>   -18.6799    19.4899    19.2954 </r>
       <r>   -18.5964    16.9632    20.7125 </r>
       <r>   -18.5128    13.0151    21.7998 </r>
       <r>   -18.4293    18.1365    23.3149 </r>
       <r>   -18.3457    19.5640    24.9493 </r>
       <r>   -18.2622    22.2559    26.8086 </r>
       <r>   -18.1787    13.7497    27.9573 </r>
       <r>   -18.0951     0.6386    28.0106 </r>
       <r>   -18.0116     5.4420    28.4652 </r>
       <r>   -17.9280    13.0982    29.5595 </r>
       <r>   -17.8445     5.1627    29.9907 </r>
       <r>   -17.7610     0.1107    30.0000 </r>
       <r>   -17.6774     0.0000    30.0000 </r>
       <r>   -17.5939     0.0000    30.0000 </r>
       <r>   -17.5103     0.0000    30.0000 </r>
       <r>   -17.4268     0.0000    30.0000 </r>
       <r>   -17.3433     0.0000    30.0000 </r>
       <r>   -17.2597     0.0000    30.0000 </r>
       <r>   -17.1762     0.0000    30.0000 </r>
       <r>   -17.0926     0.0000    30.0000 </r>
       <r>   -17.0091     0.0000    30.0000 </r>
       <r>   -16.9256     0.0691    30.0058 </r>
       <r>   -16.8420     6.0990    30.5153 </r>
       <r>   -16.7585    14.0048    31.6852 </r>
       <r>   -16.6749     3.6774    31.9925 </r>
       <r>   -16.5914     0.0903    32.0000 </r>
       <r>   -16.5078     0.0000    32.0000 </r>
       <r>   -16.4243     0.0000    32.0000 </r>
       <r>   -16.3408     0.0000    32.0000 </r>
       <r>   -16.2572     0.0000    32.0000 </r>
       <r>   -16.1737     0.0000    32.0000 </r>
       <r>   -16.0901     0.0000    32.0000 </r>
       <r>   -16.0066     0.0000    32.0000 </r>
       <r>   -15.9231     0.0000    32.0000 </r>
       <r>   -15.8395     0.0000    32.0000 </r>
       <r>   -15.7560     0.0000    32.0000 </r>
       <r>   -15.6724     0.0000    32.0000 </r>
       <r>   -15.5889     0.0000    32.0000 </r>
       <r>   -15.5054     0.0000    32.0000 </r>
       <r>   -15.4218     0.0000    32.0000 </r>
       <r>   -15.3383     0.0000    32.0000 </r>
       <r>   -15.2547     0.0000    32.0000 </r>
       <r>   -15.1712     0.0000    32.0000 </r>
       <r>   -15.0877     0.0000    32.0000 </r>
       <r>   -15.0041     0.0000    32.0000 </r>
       <r>   -14.9206     0.0000    32.0000 </r>
       <r>   -14.8370     0.0000    32.0000 </r>
       <r>   -14.7535     0.0000    32.0000 </r>
       <r>   -14.6700     0.0000    32.0000 </r>
       <r>   -14.5864     0.0000    32.0000 </r>
       <r>   -14.5029     0.0000    32.0000 </r>
       <r>   -14.4193     0.0000    32.0000 </r>
       <r>   -14.3358     0.0000    32.0000 </r>
       <r>   -14.2523     0.0000    32.0000 </r>
       <r>   -14.1687     0.0000    32.0000 </r>
       <r>   -14.0852     0.0000    32.0000 </r>
       <r>   -14.0016     0.0000    32.0000 </r>
       <r>   -13.9181     0.0000    32.0000 </r>
       <r>   -13.8346     0.0000    32.0000 </r>
       <r>   -13.7510     0.0000    32.0000 </r>
       <r>   -13.6675     0.0000    32.0000 </r>
       <r>   -13.5839     0.0000    32.0000 </r>
       <r>   -13.5004     0.0000    32.0000 </r>
       <r>   -13.4169     0.0000    32.0000 </r>
       <r>   -13.3333     0.0000    32.0000 </r>
       <r>   -13.2498     0.0000    32.0000 </r>
       <r>   -13.1662     0.0000    32.0000 </r>
       <r>   -13.0827     0.0000    32.0000 </r>
       <r>   -12.9992     0.0000    32.0000 </r>
       <r>   -12.9156     0.0000    32.0000 </r>
       <r>   -12.8321     0.0000    32.0000 </r>
       <r>   -12.7485     0.0000    32.0000 </r>
       <r>   -12.6650     0.0000    32.0000 </r>
       <r>   -12.5815     0.0000    32.0000 </r>
       <r>   -12.4979     0.0000    32.0000 </r>
       <r>   -12.4144     0.0000    32.0000 </r>
       <r>   -12.3308     0.0000    32.0000 </r>
       <r>   -12.2473     0.0000    32.0000 </r>
       <r>   -12.1638     0.0000    32.0000 </r>
       <r>   -12.0802     0.0000    32.0000 </r>
       <r>   -11.9967     0.0000    32.0000 </r>
       <r>   -11.9131     0.0000    32.0000 </r>
       <r>   -11.8296     0.0000    32.0000 </r>
       <r>   -11.7461     0.0000    32.0000 </r>
       <r>   -11.6625     0.0000    32.0000 </r>
       <r>   -11.5790     0.0000    32.0000 </r>
       <r>   -11.4954     0.0000    32.0000 </r>
       <r>   -11.4119     0.0000    32.0000 </r>
       <r>   -11.3284     0.0000    32.0000 </r>
       <r>   -11.2448     0.0000    32.0000 </r>
       <r>   -11.1613     0.0000    32.0000 </r>
       <r>   -11.0777     0.0000    32.0000 </r>
       <r>   -10.9942     0.0000    32.0000 </r>
       <r>   -10.9107     0.0000    32.0000 </r>
       <r>   -10.8271     0.0000    32.0000 </r>
       <r>   -10.7436     0.0000    32.0000 </r>
       <r>   -10.6600     0.0000    32.0000 </r>
       <r>   -10.5765     0.0000    32.0000 </r>
       <r>   -10.4929     0.0000    32.0000 </r>
       <r>   -10.4094     0.0000    32.0000 </r>
       <r>   -10.3259     0.0000    32.0000 </r>
       <r>   -10.2423     0.0000    32.0000 </r>
       <r>   -10.1588     0.0000    32.0000 </r>
       <r>   -10.0752     0.0000    32.0000 </r>
       <r>    -9.9917     0.0000    32.0000 </r>
       <r>    -9.9082     0.0000    32.0000 </r>
       <r>    -9.8246     0.0000    32.0000 </r>
       <r>    -9.7411     0.0000    32.0000 </r>
       <r>    -9.6575     0.0000    32.0000 </r>
       <r>    -9.5740     0.0000    32.0000 </r>
       <r>    -9.4905     0.0000    32.0000 </r>
       <r>    -9.4069     0.0000    32.0000 </r>
       <r>    -9.3234     0.0000    32.0000 </r>
       <r>    -9.2398     0.0000    32.0000 </r>
       <r>    -9.1563     0.0000    32.0000 </r>
       <r>    -9.0728     0.0000    32.0000 </r>
       <r>    -8.9892     0.0000    32.0000 </r>
       <r>    -8.9057     0.0000    32.0000 </r>
       <r>    -8.8221     0.0000    32.0000 </r>
       <r>    -8.7386     0.0000    32.0000 </r>
       <r>    -8.6551     0.0000    32.0000 </r>
       <r>    -8.5715     0.0000    32.0000 </r>
       <r>    -8.4880     0.0000    32.0000 </r>
       <r>    -8.4044     0.0000    32.0000 </r>
       <r>    -8.3209     0.0000    32.0000 </r>
       <r>    -8.2374     0.0000    32.0000 </r>
       <r>    -8.1538     0.0000    32.0000 </r>
       <r>    -8.0703     0.0000    32.0000 </r>
       <r>    -7.9867     0.0000    32.0000 </r>
       <r>    -7.9032     0.0000    32.0000 </r>
       <r>    -7.8197     0.0008    32.0001 </r>
       <r>    -7.7361     0.2645    32.0222 </r>
       <r>    -7.6526     2.0600    32.1943 </r>
       <r>    -7.5690     1.1777    32.2926 </r>
       <r>    -7.4855     3.4485    32.5807 </r>
       <r>    -7.4020     4.3856    32.9471 </r>
       <r>    -7.3184     2.5634    33.1613 </r>
       <r>    -7.2349     3.2776    33.4351 </r>
       <r>    -7.1513     5.9350    33.9309 </r>
       <r>    -7.0678     8.3034    34.6246 </r>
       <r>    -6.9843    11.5723    35.5913 </r>
       <r>    -6.9007    10.2491    36.4475 </r>
       <r>    -6.8172    14.6485    37.6713 </r>
       <r>    -6.7336    13.2920    38.7817 </r>
       <r>    -6.6501    16.1950    40.1346 </r>
       <r>    -6.5666    19.9898    41.8046 </r>
       <r>    -6.4830    26.3267    44.0039 </r>
       <r>    -6.3995    17.3511    45.4534 </r>
       <r>    -6.3159    20.3472    47.1532 </r>
       <r>    -6.2324    18.1654    48.6708 </r>
       <r>    -6.1489    32.6502    51.3984 </r>
       <r>    -6.0653    31.4203    54.0232 </r>
       <r>    -5.9818    29.7115    56.5054 </r>
       <r>    -5.8982    26.0993    58.6857 </r>
       <r>    -5.8147    20.1943    60.3727 </r>
       <r>    -5.7312    11.8381    61.3617 </r>
       <r>    -5.6476    14.7695    62.5955 </r>
       <r>    -5.5641    17.7956    64.0822 </r>
       <r>    -5.4805    12.9267    65.1621 </r>
       <r>    -5.3970    16.0672    66.5043 </r>
       <r>    -5.3135    18.8832    68.0819 </r>
       <r>    -5.2299    14.2065    69.2687 </r>
       <r>    -5.1464    11.1433    70.1996 </r>
       <r>    -5.0628    15.6569    71.5076 </r>
       <r>    -4.9793    20.0486    73.1824 </r>
       <r>    -4.8958    14.2818    74.3755 </r>
       <r>    -4.8122    15.1967    75.6451 </r>
       <r>    -4.7287    16.4163    77.0165 </r>
       <r>    -4.6451    27.9602    79.3523 </r>
       <r>    -4.5616    25.7835    81.5063 </r>
       <r>    -4.4780    24.7493    83.5738 </r>
       <r>    -4.3945    24.4858    85.6194 </r>
       <r>    -4.3110    21.6906    87.4314 </r>
       <r>    -4.2274    18.1019    88.9437 </r>
       <r>    -4.1439    28.4779    91.3227 </r>
       <r>    -4.0603    26.5646    93.5419 </r>
       <r>    -3.9768    22.4820    95.4201 </r>
       <r>    -3.8933    23.4256    97.3771 </r>
       <r>    -3.8097    17.9986    98.8807 </r>
       <r>    -3.7262    20.2089   100.5689 </r>
       <r>    -3.6426    15.3679   101.8528 </r>
       <r>    -3.5591    21.5641   103.6542 </r>
       <r>    -3.4756    19.3518   105.2709 </r>
       <r>    -3.3920    20.9973   107.0250 </r>
       <r>    -3.3085    15.5832   108.3268 </r>
       <r>    -3.2249    18.8223   109.8993 </r>
       <r>    -3.1414    18.5682   111.4505 </r>
       <r>    -3.0579    15.4049   112.7374 </r>
       <r>    -2.9743    21.5424   114.5370 </r>
       <r>    -2.8908    18.9193   116.1176 </r>
       <r>    -2.8072    19.0724   117.7109 </r>
       <r>    -2.7237    17.1046   119.1398 </r>
       <r>    -2.6402    12.7997   120.2091 </r>
       <r>    -2.5566    15.4226   121.4975 </r>
       <r>    -2.4731    13.4724   122.6230 </r>
       <r>    -2.3895     5.5521   123.0868 </r>
       <r>    -2.3060     2.5974   123.3038 </r>
       <r>    -2.2225     4.3955   123.6710 </r>
       <r>    -2.1389     3.4238   123.9570 </r>
       <r>    -2.0554     4.9442   124.3701 </r>
       <r>    -1.9718     9.3751   125.1533 </r>
       <r>    -1.8883    15.3571   126.4362 </r>
       <r>    -1.8048    15.9406   127.7679 </r>
       <r>    -1.7212     2.6596   127.9901 </r>
       <r>    -1.6377     0.1186   128.0000 </r>
       <r>    -1.5541     0.0002   128.0000 </r>
       <r>    -1.4706     0.0000   128.0000 </r>
       <r>    -1.3871     0.0000   128.0000 </r>
       <r>    -1.3035     0.0000   128.0000 </r>
       <r>    -1.2200     0.0000   128.0000 </r>
       <r>    -1.1364     0.0000   128.0000 </r>
       <r>    -1.0529     0.0000   128.0000 </r>
       <r>    -0.9694     0.0000   128.0000 </r>
       <r>    -0.8858     0.0000   128.0000 </r>
       <r>    -0.8023     0.0000   128.0000 </r>
       <r>    -0.7187     0.0000   128.0000 </r>
       <r>    -0.6352     0.0000   128.0000 </r>
       <r>    -0.5517     0.0164   128.0014 </r>
       <r>    -0.4681     0.8488   128.0723 </r>
       <r>    -0.3846     3.0295   128.3254 </r>
       <r>    -0.3010     4.7011   128.7181 </r>
       <r>    -0.2175    10.1174   129.5633 </r>
       <r>    -0.1340     8.7679   130.2958 </r>
       <r>    -0.0504    18.5389   131.8445 </r>
       <r>     0.0331    21.5684   133.6464 </r>
       <r>     0.1167    19.4943   135.2749 </r>
       <r>     0.2002    19.5691   136.9097 </r>
       <r>     0.2837    20.2075   138.5979 </r>
       <r>     0.3673    19.7599   140.2486 </r>
       <r>     0.4508    24.9863   142.3360 </r>
       <r>     0.5344    27.3356   144.6196 </r>
       <r>     0.6179    17.9645   146.1204 </r>
       <r>     0.7014    19.1313   147.7186 </r>
       <r>     0.7850    23.1325   149.6511 </r>
       <r>     0.8685    22.8300   151.5583 </r>
       <r>     0.9521    21.3630   153.3430 </r>
       <r>     1.0356    22.5132   155.2238 </r>
       <r>     1.1191    22.5150   157.1047 </r>
       <r>     1.2027    20.2875   158.7995 </r>
       <r>     1.2862    17.0175   160.2211 </r>
       <r>     1.3698    28.2242   162.5790 </r>
       <r>     1.4533    33.2281   165.3549 </r>
       <r>     1.5369    24.1604   167.3732 </r>
       <r>     1.6204    14.4148   168.5775 </r>
       <r>     1.7039    23.5767   170.5471 </r>
       <r>     1.7875    19.7814   172.1996 </r>
       <r>     1.8710    16.8812   173.6099 </r>
       <r>     1.9546    11.1879   174.5445 </r>
       <r>     2.0381    12.6295   175.5996 </r>
       <r>     2.1216    17.3338   177.0477 </r>
       <r>     2.2052    10.9314   177.9609 </r>
       <r>     2.2887     7.2766   178.5688 </r>
       <r>     2.3723     8.6306   179.2898 </r>
       <r>     2.4558     5.2068   179.7248 </r>
       <r>     2.5393     2.6117   179.9429 </r>
       <r>     2.6229     0.6334   179.9959 </r>
       <r>     2.7064     0.0496   180.0000 </r>
       <r>     2.7900     0.0000   180.0000 </r>
       <r>     2.8735     0.0000   180.0000 </r>
       <r>     2.9570     0.0000   180.0000 </r>
       <r>     3.0406     0.0000   180.0000 </r>
       <r>     3.1241     0.0000   180.0000 </r>
       <r>     3.2077     0.0000   180.0000 </r>
       <r>     3.2912     0.0000   180.0000 </r>
       <r>     3.3747     0.0000   180.0000 </r>
       <r>     3.4583     0.0000   180.0000 </r>
       <r>     3.5418     0.0000   180.0000 </r>
       <r>     3.6254     0.0000   180.0000 </r>
       <r>     3.7089     0.0000   180.0000 </r>
      </set>
     </set>
    </array>
   </total>
  </dos>
 </calculation>
 <structure name="finalpos" >
  <crystal>
   <varray name="basis" >
    <v>       0.00000000       0.00000000       5.92135997 </v>
    <v>       4.62995342      -4.62995342       0.00000000 </v>
    <v>      15.82936550      15.82936550       0.00000000 </v>
   </varray>
   <i name="volume">    867.94376550 </i>
   <varray name="rec_basis" >
    <v>       0.00000000       0.00000000       0.16888012 </v>
    <v>       0.10799245      -0.10799245       0.00000000 </v>
    <v>       0.03158686       0.03158686       0.00000000 </v>
   </varray>
  </crystal>
  <varray name="positions" >
   <v>       0.08911189       0.77346320       0.00000000 </v>
   <v>       0.58911189       0.77346320       0.00000000 </v>
   <v>       0.33911189       0.07763320       0.05727859 </v>
   <v>       0.83911189       0.07763320       0.05727859 </v>
   <v>       0.33911189       0.46929320       0.05727859 </v>
   <v>       0.83911189       0.46929320       0.05727859 </v>
   <v>       0.08911189       0.77346320       0.11455719 </v>
   <v>       0.58911189       0.77346320       0.11455719 </v>
   <v>       0.08911189       0.27346320       0.14624570 </v>
   <v>       0.58911189       0.27346320       0.14624570 </v>
   <v>       0.33911189       0.57763320       0.20352430 </v>
   <v>       0.83911189       0.57763320       0.20352430 </v>
   <v>       0.33911189       0.96929320       0.20352430 </v>
   <v>       0.83911189       0.96929320       0.20352430 </v>
   <v>       0.08911189       0.27346320       0.26080289 </v>
   <v>       0.58911189       0.27346320       0.26080289 </v>
   <v>       0.08911599       0.77348244       0.29386324 </v>
   <v>       0.58911598       0.77348236       0.29386324 </v>
   <v>       0.33911679       0.07419866       0.35080791 </v>
   <v>       0.83911668       0.07419867       0.35080790 </v>
   <v>       0.33912283       0.47274354       0.35079091 </v>
   <v>       0.83912285       0.47274353       0.35079090 </v>
   <v>       0.08905238       0.77342803       0.40850660 </v>
   <v>       0.58905242       0.77342811       0.40850660 </v>
   <v>       0.08896477       0.27342965       0.43991909 </v>
   <v>       0.58896471       0.27342988       0.43991911 </v>
   <v>       0.33891527       0.58532147       0.50493752 </v>
   <v>       0.83891528       0.58532147       0.50493753 </v>
   <v>       0.33889015       0.96144247       0.50493644 </v>
   <v>       0.83889014       0.96144248       0.50493645 </v>
   <v>       0.08898192       0.27335653       0.55541975 </v>
   <v>       0.58898192       0.27335634       0.55541977 </v>
   <v>       0.08911189       0.27346320       0.05727859 </v>
   <v>       0.58911189       0.27346320       0.05727859 </v>
   <v>       0.33911189       0.77346320       0.05727859 </v>
   <v>       0.83911189       0.77346320       0.05727859 </v>
   <v>       0.33911189       0.27346320       0.20352430 </v>
   <v>       0.83911189       0.27346320       0.20352430 </v>
   <v>       0.08911189       0.77346320       0.20352430 </v>
   <v>       0.58911189       0.77346320       0.20352430 </v>
   <v>       0.08923672       0.27340938       0.35603880 </v>
   <v>       0.58923672       0.27340937       0.35603882 </v>
   <v>       0.33918024       0.77338630       0.34722598 </v>
   <v>       0.83918024       0.77338630       0.34722598 </v>
   <v>       0.33907062       0.27338642       0.50608600 </v>
   <v>       0.83907059       0.27338642       0.50608602 </v>
   <v>       0.08895678       0.77338679       0.49034027 </v>
   <v>       0.58895676       0.77338699       0.49034027 </v>
  </varray>
  <varray name="selective"  type="logical" >
   <v type="logical" >  F  F  F </v>
   <v type="logical" >  F  F  F </v>
   <v type="logical" >  F  F  F </v>
   <v type="logical" >  F  F  F </v>
   <v type="logical" >  F  F  F </v>
   <v type="logical" >  F  F  F </v>
   <v type="logical" >  F  F  F </v>
   <v type="logical" >  F  F  F </v>
   <v type="logical" >  F  F  F </v>
   <v type="logical" >  F  F  F </v>
   <v type="logical" >  F  F  F </v>
   <v type="logical" >  F  F  F </v>
   <v type="logical" >  F  F  F </v>
   <v type="logical" >  F  F  F </v>
   <v type="logical" >  F  F  F </v>
   <v type="logical" >  F  F  F </v>
   <v type="logical" >  T  T  T </v>
   <v type="logical" >  T  T  T </v>
   <v type="logical" >  T  T  T </v>
   <v type="logical" >  T  T  T </v>
   <v type="logical" >  T  T  T </v>
   <v type="logical" >  T  T  T </v>
   <v type="logical" >  T  T  T </v>
   <v type="logical" >  T  T  T </v>
   <v type="logical" >  T  T  T </v>
   <v type="logical" >  T  T  T </v>
   <v type="logical" >  T  T  T </v>
   <v type="logical" >  T  T  T </v>
   <v type="logical" >  T  T  T </v>
   <v type="logical" >  T  T  T </v>
   <v type="logical" >  T  T  T </v>
   <v type="logical" >  T  T  T </v>
   <v type="logical" >  F  F  F </v>
   <v type="logical" >  F  F  F </v>
   <v type="logical" >  F  F  F </v>
   <v type="logical" >  F  F  F </v>
   <v type="logical" >  F  F  F </v>
   <v type="logical" >  F  F  F </v>
   <v type="logical" >  F  F  F </v>
   <v type="logical" >  F  F  F </v>
   <v type="logical" >  T  T  T </v>
   <v type="logical" >  T  T  T </v>
   <v type="logical" >  T  T  T </v>
   <v type="logical" >  T  T  T </v>
   <v type="logical" >  T  T  T </v>
   <v type="logical" >  T  T  T </v>
   <v type="logical" >  T  T  T </v>
   <v type="logical" >  T  T  T </v>
  </varray>
  <nose>
   <v>      -3.00000000       0.00000000       0.00010000       0.00010000 </v>
  </nose>
 </structure>
</modeling>
