  48  48   0   0
  0.1867776E+02  0.5459828E-09  0.6983494E-09  0.2351334E-08  0.1000000E-15
  1.000000000000000E-004
  CAR 
 MoO2_suf110_2x1x4_2fix                  
      6.74628597    -21.04657357  301      0.70262846      1.00000000
    -21.047  0.0000E+00  0.0000E+00  0.0000E+00  0.0000E+00
    -20.954  0.0000E+00  0.0000E+00  0.0000E+00  0.0000E+00
    -20.861  0.0000E+00  0.0000E+00  0.0000E+00  0.0000E+00
    -20.769  0.0000E+00  0.0000E+00  0.0000E+00  0.0000E+00
    -20.676  0.0000E+00  0.0000E+00  0.0000E+00  0.0000E+00
    -20.583  0.0000E+00  0.0000E+00  0.0000E+00  0.0000E+00
    -20.491  0.0000E+00  0.0000E+00  0.0000E+00  0.0000E+00
    -20.398  0.0000E+00  0.0000E+00  0.0000E+00  0.0000E+00
    -20.305  0.0000E+00  0.0000E+00  0.0000E+00  0.0000E+00
    -20.213  0.0000E+00  0.0000E+00  0.0000E+00  0.0000E+00
    -20.120  0.0000E+00  0.0000E+00  0.0000E+00  0.0000E+00
    -20.028  0.2076E-14  0.2209E-14  0.1923E-15  0.2047E-15
    -19.935  0.7848E-08  0.8169E-08  0.7270E-09  0.7568E-09
    -19.842  0.4650E-04  0.4751E-04  0.4309E-05  0.4402E-05
    -19.750  0.1488E-02  0.1503E-02  0.1421E-03  0.1436E-03
    -19.657  0.3592E-02  0.3663E-02  0.4749E-03  0.4829E-03
    -19.564  0.3483E-02  0.3463E-02  0.7976E-03  0.8038E-03
    -19.472  0.3805E-02  0.3692E-02  0.1150E-02  0.1146E-02
    -19.379  0.8634E-02  0.8527E-02  0.1950E-02  0.1936E-02
    -19.286  0.1075E-01  0.1059E-01  0.2946E-02  0.2917E-02
    -19.194  0.8845E-02  0.9028E-02  0.3765E-02  0.3753E-02
    -19.101  0.9468E-02  0.9413E-02  0.4642E-02  0.4625E-02
    -19.008  0.1151E-01  0.1141E-01  0.5709E-02  0.5683E-02
    -18.916  0.1926E-01  0.1880E-01  0.7493E-02  0.7424E-02
    -18.823  0.1740E-01  0.1757E-01  0.9105E-02  0.9052E-02
    -18.731  0.2208E-01  0.2254E-01  0.1115E-01  0.1114E-01
    -18.638  0.1594E-01  0.1587E-01  0.1263E-01  0.1261E-01
    -18.545  0.1664E-01  0.1646E-01  0.1417E-01  0.1414E-01
    -18.453  0.2410E-01  0.2348E-01  0.1640E-01  0.1631E-01
    -18.360  0.1923E-01  0.1972E-01  0.1818E-01  0.1814E-01
    -18.267  0.1657E-01  0.1652E-01  0.1972E-01  0.1967E-01
    -18.175  0.2112E-01  0.2077E-01  0.2167E-01  0.2159E-01
    -18.082  0.2538E-01  0.2633E-01  0.2403E-01  0.2403E-01
    -17.989  0.1579E-01  0.1579E-01  0.2549E-01  0.2549E-01
    -17.897  0.7108E-02  0.7068E-02  0.2615E-01  0.2615E-01
    -17.804  0.9038E-02  0.9456E-02  0.2698E-01  0.2703E-01
    -17.711  0.9272E-02  0.8904E-02  0.2784E-01  0.2785E-01
    -17.619  0.1687E-02  0.1606E-02  0.2800E-01  0.2800E-01
    -17.526  0.6417E-05  0.5947E-05  0.2800E-01  0.2800E-01
    -17.434  0.1834E-03  0.3714E-03  0.2802E-01  0.2803E-01
    -17.341  0.2226E-02  0.2289E-02  0.2822E-01  0.2825E-01
    -17.248  0.3815E-02  0.4254E-02  0.2858E-01  0.2864E-01
    -17.156  0.4074E-02  0.3566E-02  0.2895E-01  0.2897E-01
    -17.063  0.1083E-02  0.1116E-02  0.2905E-01  0.2907E-01
    -16.970  0.5686E-02  0.6023E-02  0.2958E-01  0.2963E-01
    -16.878  0.8121E-02  0.3789E-02  0.3033E-01  0.2998E-01
    -16.785  0.8574E-02  0.9088E-03  0.3113E-01  0.3007E-01
    -16.692  0.3217E-02  0.7903E-02  0.3143E-01  0.3080E-01
    -16.600  0.4782E-02  0.4951E-02  0.3187E-01  0.3126E-01
    -16.507  0.1402E-02  0.4566E-02  0.3200E-01  0.3168E-01
    -16.414  0.1173E-04  0.3188E-02  0.3200E-01  0.3198E-01
    -16.322  0.2116E-09  0.2497E-03  0.3200E-01  0.3200E-01
    -16.229  0.4993E-17  0.1063E-06  0.3200E-01  0.3200E-01
    -16.137  0.0000E+00  0.6864E-13  0.3200E-01  0.3200E-01
    -16.044  0.0000E+00  0.0000E+00  0.3200E-01  0.3200E-01
    -15.951  0.0000E+00  0.0000E+00  0.3200E-01  0.3200E-01
    -15.859  0.0000E+00  0.0000E+00  0.3200E-01  0.3200E-01
    -15.766  0.0000E+00  0.0000E+00  0.3200E-01  0.3200E-01
    -15.673  0.0000E+00  0.0000E+00  0.3200E-01  0.3200E-01
    -15.581  0.0000E+00  0.0000E+00  0.3200E-01  0.3200E-01
    -15.488  0.0000E+00  0.0000E+00  0.3200E-01  0.3200E-01
    -15.395  0.0000E+00  0.0000E+00  0.3200E-01  0.3200E-01
    -15.303  0.0000E+00  0.0000E+00  0.3200E-01  0.3200E-01
    -15.210  0.0000E+00  0.0000E+00  0.3200E-01  0.3200E-01
    -15.117  0.0000E+00  0.0000E+00  0.3200E-01  0.3200E-01
    -15.025  0.0000E+00  0.0000E+00  0.3200E-01  0.3200E-01
    -14.932  0.0000E+00  0.0000E+00  0.3200E-01  0.3200E-01
    -14.840  0.0000E+00  0.0000E+00  0.3200E-01  0.3200E-01
    -14.747  0.0000E+00  0.0000E+00  0.3200E-01  0.3200E-01
    -14.654  0.0000E+00  0.0000E+00  0.3200E-01  0.3200E-01
    -14.562  0.0000E+00  0.0000E+00  0.3200E-01  0.3200E-01
    -14.469  0.0000E+00  0.0000E+00  0.3200E-01  0.3200E-01
    -14.376  0.0000E+00  0.0000E+00  0.3200E-01  0.3200E-01
    -14.284  0.0000E+00  0.0000E+00  0.3200E-01  0.3200E-01
    -14.191  0.0000E+00  0.0000E+00  0.3200E-01  0.3200E-01
    -14.098  0.0000E+00  0.0000E+00  0.3200E-01  0.3200E-01
    -14.006  0.0000E+00  0.0000E+00  0.3200E-01  0.3200E-01
    -13.913  0.0000E+00  0.0000E+00  0.3200E-01  0.3200E-01
    -13.820  0.0000E+00  0.0000E+00  0.3200E-01  0.3200E-01
    -13.728  0.0000E+00  0.0000E+00  0.3200E-01  0.3200E-01
    -13.635  0.0000E+00  0.0000E+00  0.3200E-01  0.3200E-01
    -13.543  0.0000E+00  0.0000E+00  0.3200E-01  0.3200E-01
    -13.450  0.0000E+00  0.0000E+00  0.3200E-01  0.3200E-01
    -13.357  0.0000E+00  0.0000E+00  0.3200E-01  0.3200E-01
    -13.265  0.0000E+00  0.0000E+00  0.3200E-01  0.3200E-01
    -13.172  0.0000E+00  0.0000E+00  0.3200E-01  0.3200E-01
    -13.079  0.0000E+00  0.0000E+00  0.3200E-01  0.3200E-01
    -12.987  0.0000E+00  0.0000E+00  0.3200E-01  0.3200E-01
    -12.894  0.0000E+00  0.0000E+00  0.3200E-01  0.3200E-01
    -12.801  0.0000E+00  0.0000E+00  0.3200E-01  0.3200E-01
    -12.709  0.0000E+00  0.0000E+00  0.3200E-01  0.3200E-01
    -12.616  0.0000E+00  0.0000E+00  0.3200E-01  0.3200E-01
    -12.523  0.0000E+00  0.0000E+00  0.3200E-01  0.3200E-01
    -12.431  0.0000E+00  0.0000E+00  0.3200E-01  0.3200E-01
    -12.338  0.0000E+00  0.0000E+00  0.3200E-01  0.3200E-01
    -12.246  0.0000E+00  0.0000E+00  0.3200E-01  0.3200E-01
    -12.153  0.0000E+00  0.0000E+00  0.3200E-01  0.3200E-01
    -12.060  0.0000E+00  0.0000E+00  0.3200E-01  0.3200E-01
    -11.968  0.0000E+00  0.0000E+00  0.3200E-01  0.3200E-01
    -11.875  0.0000E+00  0.0000E+00  0.3200E-01  0.3200E-01
    -11.782  0.0000E+00  0.0000E+00  0.3200E-01  0.3200E-01
    -11.690  0.0000E+00  0.0000E+00  0.3200E-01  0.3200E-01
    -11.597  0.0000E+00  0.0000E+00  0.3200E-01  0.3200E-01
    -11.504  0.0000E+00  0.0000E+00  0.3200E-01  0.3200E-01
    -11.412  0.0000E+00  0.0000E+00  0.3200E-01  0.3200E-01
    -11.319  0.0000E+00  0.0000E+00  0.3200E-01  0.3200E-01
    -11.226  0.0000E+00  0.0000E+00  0.3200E-01  0.3200E-01
    -11.134  0.0000E+00  0.0000E+00  0.3200E-01  0.3200E-01
    -11.041  0.0000E+00  0.0000E+00  0.3200E-01  0.3200E-01
    -10.949  0.0000E+00  0.0000E+00  0.3200E-01  0.3200E-01
    -10.856  0.0000E+00  0.0000E+00  0.3200E-01  0.3200E-01
    -10.763  0.0000E+00  0.0000E+00  0.3200E-01  0.3200E-01
    -10.671  0.0000E+00  0.0000E+00  0.3200E-01  0.3200E-01
    -10.578  0.0000E+00  0.0000E+00  0.3200E-01  0.3200E-01
    -10.485  0.0000E+00  0.0000E+00  0.3200E-01  0.3200E-01
    -10.393  0.0000E+00  0.0000E+00  0.3200E-01  0.3200E-01
    -10.300  0.0000E+00  0.0000E+00  0.3200E-01  0.3200E-01
    -10.207  0.0000E+00  0.0000E+00  0.3200E-01  0.3200E-01
    -10.115  0.0000E+00  0.0000E+00  0.3200E-01  0.3200E-01
    -10.022  0.0000E+00  0.0000E+00  0.3200E-01  0.3200E-01
     -9.929  0.0000E+00  0.0000E+00  0.3200E-01  0.3200E-01
     -9.837  0.0000E+00  0.0000E+00  0.3200E-01  0.3200E-01
     -9.744  0.0000E+00  0.0000E+00  0.3200E-01  0.3200E-01
     -9.652  0.0000E+00  0.0000E+00  0.3200E-01  0.3200E-01
     -9.559  0.0000E+00  0.0000E+00  0.3200E-01  0.3200E-01
     -9.466  0.0000E+00  0.0000E+00  0.3200E-01  0.3200E-01
     -9.374  0.0000E+00  0.0000E+00  0.3200E-01  0.3200E-01
     -9.281  0.0000E+00  0.0000E+00  0.3200E-01  0.3200E-01
     -9.188  0.0000E+00  0.0000E+00  0.3200E-01  0.3200E-01
     -9.096  0.0000E+00  0.0000E+00  0.3200E-01  0.3200E-01
     -9.003  0.0000E+00  0.0000E+00  0.3200E-01  0.3200E-01
     -8.910  0.0000E+00  0.0000E+00  0.3200E-01  0.3200E-01
     -8.818  0.0000E+00  0.0000E+00  0.3200E-01  0.3200E-01
     -8.725  0.0000E+00  0.0000E+00  0.3200E-01  0.3200E-01
     -8.632  0.0000E+00  0.0000E+00  0.3200E-01  0.3200E-01
     -8.540  0.0000E+00  0.0000E+00  0.3200E-01  0.3200E-01
     -8.447  0.0000E+00  0.0000E+00  0.3200E-01  0.3200E-01
     -8.355  0.0000E+00  0.0000E+00  0.3200E-01  0.3200E-01
     -8.262  0.0000E+00  0.0000E+00  0.3200E-01  0.3200E-01
     -8.169  0.0000E+00  0.0000E+00  0.3200E-01  0.3200E-01
     -8.077  0.0000E+00  0.0000E+00  0.3200E-01  0.3200E-01
     -7.984  0.2388E-11  0.1250E-11  0.3200E-01  0.3200E-01
     -7.891  0.5864E-06  0.3994E-06  0.3200E-01  0.3200E-01
     -7.799  0.2775E-03  0.2181E-03  0.3203E-01  0.3202E-01
     -7.706  0.1824E-02  0.1412E-02  0.3219E-01  0.3215E-01
     -7.613  0.2838E-02  0.3276E-02  0.3246E-01  0.3245E-01
     -7.521  0.7742E-02  0.7502E-02  0.3317E-01  0.3315E-01
     -7.428  0.1019E-01  0.9638E-02  0.3412E-01  0.3404E-01
     -7.335  0.1015E-01  0.1070E-01  0.3506E-01  0.3503E-01
     -7.243  0.8225E-02  0.8388E-02  0.3582E-01  0.3581E-01
     -7.150  0.7468E-02  0.6954E-02  0.3651E-01  0.3646E-01
     -7.058  0.8817E-02  0.7379E-02  0.3733E-01  0.3714E-01
     -6.965  0.1497E-01  0.1526E-01  0.3872E-01  0.3855E-01
     -6.872  0.1593E-01  0.1646E-01  0.4019E-01  0.4008E-01
     -6.780  0.1301E-01  0.1309E-01  0.4140E-01  0.4129E-01
     -6.687  0.1767E-01  0.1795E-01  0.4303E-01  0.4295E-01
     -6.594  0.1872E-01  0.1832E-01  0.4477E-01  0.4465E-01
     -6.502  0.2310E-01  0.2158E-01  0.4691E-01  0.4665E-01
     -6.409  0.1944E-01  0.2065E-01  0.4871E-01  0.4856E-01
     -6.316  0.1437E-01  0.1439E-01  0.5004E-01  0.4989E-01
     -6.224  0.1887E-01  0.1916E-01  0.5179E-01  0.5167E-01
     -6.131  0.1874E-01  0.1931E-01  0.5353E-01  0.5346E-01
     -6.038  0.1641E-01  0.1619E-01  0.5505E-01  0.5496E-01
     -5.946  0.1228E-01  0.1254E-01  0.5618E-01  0.5612E-01
     -5.853  0.9881E-02  0.9382E-02  0.5710E-01  0.5699E-01
     -5.761  0.1876E-01  0.1776E-01  0.5884E-01  0.5863E-01
     -5.668  0.2079E-01  0.2067E-01  0.6076E-01  0.6055E-01
     -5.575  0.9694E-02  0.1157E-01  0.6166E-01  0.6162E-01
     -5.483  0.1628E-01  0.1498E-01  0.6317E-01  0.6301E-01
     -5.390  0.1585E-01  0.1615E-01  0.6464E-01  0.6451E-01
     -5.297  0.9620E-02  0.1020E-01  0.6553E-01  0.6545E-01
     -5.205  0.1140E-01  0.1114E-01  0.6658E-01  0.6648E-01
     -5.112  0.1740E-01  0.1590E-01  0.6820E-01  0.6795E-01
     -5.019  0.2289E-01  0.2397E-01  0.7032E-01  0.7018E-01
     -4.927  0.1486E-01  0.1503E-01  0.7169E-01  0.7157E-01
     -4.834  0.1651E-01  0.1622E-01  0.7322E-01  0.7307E-01
     -4.741  0.1420E-01  0.1488E-01  0.7454E-01  0.7445E-01
     -4.649  0.1492E-01  0.1446E-01  0.7592E-01  0.7579E-01
     -4.556  0.1800E-01  0.1698E-01  0.7759E-01  0.7736E-01
     -4.464  0.2293E-01  0.2283E-01  0.7971E-01  0.7948E-01
     -4.371  0.1698E-01  0.1816E-01  0.8128E-01  0.8116E-01
     -4.278  0.1894E-01  0.1905E-01  0.8304E-01  0.8292E-01
     -4.186  0.1462E-01  0.1475E-01  0.8439E-01  0.8429E-01
     -4.093  0.1814E-01  0.1744E-01  0.8607E-01  0.8591E-01
     -4.000  0.2116E-01  0.2057E-01  0.8803E-01  0.8781E-01
     -3.908  0.2320E-01  0.2338E-01  0.9018E-01  0.8998E-01
     -3.815  0.2214E-01  0.2217E-01  0.9223E-01  0.9203E-01
     -3.722  0.2165E-01  0.2181E-01  0.9424E-01  0.9405E-01
     -3.630  0.2282E-01  0.2277E-01  0.9635E-01  0.9616E-01
     -3.537  0.2071E-01  0.2082E-01  0.9827E-01  0.9809E-01
     -3.444  0.1790E-01  0.1849E-01  0.9993E-01  0.9980E-01
     -3.352  0.2546E-01  0.2383E-01  0.1023E+00  0.1020E+00
     -3.259  0.2060E-01  0.2214E-01  0.1042E+00  0.1041E+00
     -3.167  0.1365E-01  0.1401E-01  0.1055E+00  0.1054E+00
     -3.074  0.1474E-01  0.1468E-01  0.1068E+00  0.1067E+00
     -2.981  0.1346E-01  0.1248E-01  0.1081E+00  0.1079E+00
     -2.889  0.1441E-01  0.1520E-01  0.1094E+00  0.1093E+00
     -2.796  0.1812E-01  0.1873E-01  0.1111E+00  0.1110E+00
     -2.703  0.2009E-01  0.1958E-01  0.1130E+00  0.1128E+00
     -2.611  0.1874E-01  0.1893E-01  0.1147E+00  0.1146E+00
     -2.518  0.1629E-01  0.1666E-01  0.1162E+00  0.1161E+00
     -2.425  0.1243E-01  0.1273E-01  0.1173E+00  0.1173E+00
     -2.333  0.1746E-01  0.1598E-01  0.1190E+00  0.1188E+00
     -2.240  0.1685E-01  0.1816E-01  0.1205E+00  0.1205E+00
     -2.147  0.8473E-02  0.6972E-02  0.1213E+00  0.1211E+00
     -2.055  0.1033E-01  0.1158E-01  0.1223E+00  0.1222E+00
     -1.962  0.8092E-02  0.5957E-02  0.1230E+00  0.1227E+00
     -1.870  0.1985E-01  0.9729E-02  0.1249E+00  0.1236E+00
     -1.777  0.1567E-01  0.1288E-01  0.1263E+00  0.1248E+00
     -1.684  0.1149E-01  0.1568E-01  0.1274E+00  0.1263E+00
     -1.592  0.5880E-02  0.1359E-01  0.1279E+00  0.1275E+00
     -1.499  0.1639E-02  0.4381E-02  0.1281E+00  0.1280E+00
     -1.406  0.1054E-02  0.1928E-02  0.1282E+00  0.1281E+00
     -1.314  0.4966E-02  0.4467E-02  0.1286E+00  0.1285E+00
     -1.221  0.3711E-02  0.4558E-02  0.1290E+00  0.1290E+00
     -1.128  0.3421E-02  0.2651E-02  0.1293E+00  0.1292E+00
     -1.036  0.5582E-02  0.4357E-02  0.1298E+00  0.1296E+00
     -0.943  0.6755E-02  0.6615E-02  0.1304E+00  0.1302E+00
     -0.850  0.3563E-02  0.4986E-02  0.1308E+00  0.1307E+00
     -0.758  0.4861E-02  0.5786E-02  0.1312E+00  0.1312E+00
     -0.665  0.7329E-02  0.7363E-02  0.1319E+00  0.1319E+00
     -0.573  0.4747E-02  0.3434E-02  0.1323E+00  0.1322E+00
     -0.480  0.5479E-02  0.3266E-02  0.1328E+00  0.1325E+00
     -0.387  0.1040E-01  0.6863E-02  0.1338E+00  0.1332E+00
     -0.295  0.4522E-02  0.1020E-01  0.1342E+00  0.1341E+00
     -0.202  0.7051E-02  0.7217E-02  0.1349E+00  0.1348E+00
     -0.109  0.8101E-02  0.6755E-02  0.1356E+00  0.1354E+00
     -0.017  0.1102E-01  0.9676E-02  0.1366E+00  0.1363E+00
      0.076  0.1186E-01  0.8955E-02  0.1377E+00  0.1371E+00
      0.169  0.6584E-02  0.1195E-01  0.1384E+00  0.1382E+00
      0.261  0.1021E-01  0.8121E-02  0.1393E+00  0.1390E+00
      0.354  0.1316E-01  0.1384E-01  0.1405E+00  0.1403E+00
      0.447  0.1229E-01  0.1041E-01  0.1417E+00  0.1412E+00
      0.539  0.7032E-02  0.9352E-02  0.1423E+00  0.1421E+00
      0.632  0.1291E-01  0.8008E-02  0.1435E+00  0.1428E+00
      0.724  0.1188E-01  0.1007E-01  0.1446E+00  0.1438E+00
      0.817  0.6688E-02  0.1089E-01  0.1452E+00  0.1448E+00
      0.910  0.6292E-02  0.7786E-02  0.1458E+00  0.1455E+00
      1.002  0.1195E-01  0.8583E-02  0.1469E+00  0.1463E+00
      1.095  0.1413E-01  0.1213E-01  0.1482E+00  0.1474E+00
      1.188  0.1310E-01  0.1251E-01  0.1494E+00  0.1486E+00
      1.280  0.1128E-01  0.1374E-01  0.1505E+00  0.1499E+00
      1.373  0.1714E-01  0.1763E-01  0.1521E+00  0.1515E+00
      1.466  0.1625E-01  0.1533E-01  0.1536E+00  0.1529E+00
      1.558  0.1415E-01  0.1476E-01  0.1549E+00  0.1543E+00
      1.651  0.1077E-01  0.1322E-01  0.1559E+00  0.1555E+00
      1.744  0.1755E-01  0.1580E-01  0.1575E+00  0.1570E+00
      1.836  0.1802E-01  0.1565E-01  0.1592E+00  0.1584E+00
      1.929  0.2109E-01  0.2243E-01  0.1611E+00  0.1605E+00
      2.021  0.1729E-01  0.1964E-01  0.1627E+00  0.1623E+00
      2.114  0.2079E-01  0.2198E-01  0.1647E+00  0.1644E+00
      2.207  0.1387E-01  0.1377E-01  0.1659E+00  0.1656E+00
      2.299  0.1448E-01  0.1464E-01  0.1673E+00  0.1670E+00
      2.392  0.9083E-02  0.8671E-02  0.1681E+00  0.1678E+00
      2.485  0.1463E-01  0.1260E-01  0.1695E+00  0.1690E+00
      2.577  0.1287E-01  0.1473E-01  0.1707E+00  0.1703E+00
      2.670  0.1155E-01  0.1160E-01  0.1718E+00  0.1714E+00
      2.763  0.1177E-01  0.1305E-01  0.1728E+00  0.1726E+00
      2.855  0.9898E-02  0.8923E-02  0.1738E+00  0.1734E+00
      2.948  0.8858E-02  0.1008E-01  0.1746E+00  0.1744E+00
      3.041  0.6292E-02  0.6943E-02  0.1752E+00  0.1750E+00
      3.133  0.8363E-02  0.8983E-02  0.1759E+00  0.1758E+00
      3.226  0.8337E-02  0.8883E-02  0.1767E+00  0.1767E+00
      3.318  0.2256E-02  0.2055E-02  0.1769E+00  0.1769E+00
      3.411  0.5167E-02  0.5334E-02  0.1774E+00  0.1773E+00
      3.504  0.4868E-02  0.4840E-02  0.1778E+00  0.1778E+00
      3.596  0.5239E-02  0.5321E-02  0.1783E+00  0.1783E+00
      3.689  0.5370E-02  0.5265E-02  0.1788E+00  0.1788E+00
      3.782  0.4806E-02  0.4054E-02  0.1793E+00  0.1792E+00
      3.874  0.5663E-02  0.6361E-02  0.1798E+00  0.1797E+00
      3.967  0.1072E-01  0.8934E-02  0.1808E+00  0.1806E+00
      4.060  0.1481E-01  0.1212E-01  0.1822E+00  0.1817E+00
      4.152  0.1023E-01  0.1325E-01  0.1831E+00  0.1829E+00
      4.245  0.8635E-02  0.9320E-02  0.1839E+00  0.1838E+00
      4.338  0.4874E-02  0.5685E-02  0.1844E+00  0.1843E+00
      4.430  0.1100E-01  0.8665E-02  0.1854E+00  0.1851E+00
      4.523  0.1405E-01  0.1505E-01  0.1867E+00  0.1865E+00
      4.616  0.1055E-01  0.1166E-01  0.1877E+00  0.1876E+00
      4.708  0.8497E-02  0.8274E-02  0.1884E+00  0.1884E+00
      4.801  0.6891E-02  0.6656E-02  0.1891E+00  0.1890E+00
      4.893  0.8959E-02  0.8528E-02  0.1899E+00  0.1898E+00
      4.986  0.1171E-01  0.1189E-01  0.1910E+00  0.1909E+00
      5.079  0.1114E-01  0.1101E-01  0.1920E+00  0.1919E+00
      5.171  0.1537E-01  0.1291E-01  0.1935E+00  0.1931E+00
      5.264  0.9419E-02  0.1142E-01  0.1943E+00  0.1941E+00
      5.357  0.9069E-02  0.9624E-02  0.1952E+00  0.1950E+00
      5.449  0.6159E-02  0.7229E-02  0.1957E+00  0.1957E+00
      5.542  0.2700E-02  0.3098E-02  0.1960E+00  0.1960E+00
      5.635  0.8775E-04  0.1489E-03  0.1960E+00  0.1960E+00
      5.727  0.9671E-08  0.2463E-07  0.1960E+00  0.1960E+00
      5.820  0.1675E-14  0.5999E-14  0.1960E+00  0.1960E+00
      5.913  0.0000E+00  0.0000E+00  0.1960E+00  0.1960E+00
      6.005  0.0000E+00  0.0000E+00  0.1960E+00  0.1960E+00
      6.098  0.0000E+00  0.0000E+00  0.1960E+00  0.1960E+00
      6.190  0.0000E+00  0.0000E+00  0.1960E+00  0.1960E+00
      6.283  0.0000E+00  0.0000E+00  0.1960E+00  0.1960E+00
      6.376  0.0000E+00  0.0000E+00  0.1960E+00  0.1960E+00
      6.468  0.0000E+00  0.0000E+00  0.1960E+00  0.1960E+00
      6.561  0.0000E+00  0.0000E+00  0.1960E+00  0.1960E+00
      6.654  0.0000E+00  0.0000E+00  0.1960E+00  0.1960E+00
      6.746  0.0000E+00  0.0000E+00  0.1960E+00  0.1960E+00
