 running on   24 total cores
 distrk:  each k-point on   24 cores,    1 groups
 distr:  one band on    6 cores,    4 groups
 using from now: INCAR     
vasp.5.4.1 08Jul2015 (build Apr 24 2014 00:09:29) complex standard with constrain (TS)    
 POSCAR found type information on POSCAR  O  Mo
 POSCAR found :  2 types and      48 ions
 scaLAPACK will be used
 LDA part: xc-table for Pade appr. of Perdew
 POSCAR, INCAR and KPOINTS ok, starting setup
 WARNING: small aliasing (wrap around) errors must be expected
 FFT: planning ...
 WAVECAR not read
 entering main loop
       N       E                     dE             d eps       ncg     rms          rms(c)
DAV:   1     0.223337586713E+04    0.22334E+04   -0.13792E+05  5488   0.128E+03
DAV:   2    -0.199888867067E+03   -0.24333E+04   -0.22894E+04  6672   0.336E+02
DAV:   3    -0.479638081309E+03   -0.27975E+03   -0.27289E+03  6400   0.113E+02
DAV:   4    -0.489320096645E+03   -0.96820E+01   -0.95757E+01  6896   0.210E+01
DAV:   5    -0.489608355333E+03   -0.28826E+00   -0.28749E+00  6792   0.344E+00    0.160E+02
RMM:   6    -0.364447714974E+03    0.12516E+03   -0.56481E+02  5511   0.436E+01    0.572E+01
RMM:   7    -0.393547383500E+03   -0.29100E+02   -0.10785E+02  5496   0.186E+01    0.546E+01
RMM:   8    -0.379530802989E+03    0.14017E+02   -0.40452E+01  5499   0.103E+01    0.357E+01
RMM:   9    -0.372174693221E+03    0.73561E+01   -0.23529E+01  5517   0.704E+00    0.235E+01
RMM:  10    -0.374972997389E+03   -0.27983E+01   -0.78968E+00  5570   0.438E+00    0.223E+01
RMM:  11    -0.372697997417E+03    0.22750E+01   -0.27390E+00  5500   0.292E+00    0.166E+01
RMM:  12    -0.371375122984E+03    0.13229E+01   -0.77311E-01  5518   0.159E+00    0.140E+01
RMM:  13    -0.374834796293E+03   -0.34597E+01   -0.13365E+00  5500   0.229E+00    0.109E+01
RMM:  14    -0.380320847642E+03   -0.54861E+01   -0.16706E+00  5492   0.261E+00    0.919E+00
RMM:  15    -0.390828584792E+03   -0.10508E+02   -0.47948E+00  5491   0.416E+00    0.920E+00
RMM:  16    -0.400653636307E+03   -0.98251E+01   -0.63189E+00  5490   0.439E+00    0.637E+00
RMM:  17    -0.404750445344E+03   -0.40968E+01   -0.26134E+00  5526   0.271E+00    0.511E+00
RMM:  18    -0.410208100031E+03   -0.54577E+01   -0.74188E+00  5490   0.430E+00    0.420E+00
RMM:  19    -0.411189524071E+03   -0.98142E+00   -0.19570E+00  5502   0.213E+00    0.328E+00
RMM:  20    -0.411348043044E+03   -0.15852E+00   -0.22841E-01  5541   0.758E-01    0.250E+00
RMM:  21    -0.411493724638E+03   -0.14568E+00   -0.77009E-02  5493   0.468E-01    0.188E+00
RMM:  22    -0.411686662020E+03   -0.19294E+00   -0.64652E-02  5495   0.438E-01    0.154E+00
RMM:  23    -0.411743992986E+03   -0.57331E-01   -0.35383E-02  5503   0.298E-01    0.999E-01
RMM:  24    -0.411773603928E+03   -0.29611E-01   -0.16173E-02  5505   0.210E-01    0.466E-01
RMM:  25    -0.411736142528E+03    0.37461E-01   -0.65425E-03  5508   0.120E-01    0.407E-01
RMM:  26    -0.411690644089E+03    0.45498E-01   -0.30538E-03  5247   0.851E-02    0.201E-01
RMM:  27    -0.411678282154E+03    0.12362E-01   -0.15024E-03  4845   0.592E-02    0.153E-01
RMM:  28    -0.411699699131E+03   -0.21417E-01   -0.83368E-04  4497   0.422E-02    0.166E-01
RMM:  29    -0.411728080862E+03   -0.28382E-01   -0.61869E-04  4171   0.353E-02    0.900E-02
RMM:  30    -0.411764101284E+03   -0.36020E-01   -0.65126E-04  3981   0.318E-02    0.811E-02
RMM:  31    -0.411791572417E+03   -0.27471E-01   -0.68093E-04  3948   0.304E-02    0.644E-02
RMM:  32    -0.411821171339E+03   -0.29599E-01   -0.14484E-03  4142   0.401E-02    0.444E-02
RMM:  33    -0.411835422921E+03   -0.14252E-01   -0.11665E-03  3969   0.306E-02    0.369E-02
RMM:  34    -0.411846538636E+03   -0.11116E-01   -0.74144E-04  3718   0.235E-02    0.192E-02
RMM:  35    -0.411852292764E+03   -0.57541E-02   -0.38465E-04  3271   0.158E-02    0.112E-02
RMM:  36    -0.411853452038E+03   -0.11593E-02   -0.11420E-04  2572   0.966E-03    0.902E-03
RMM:  37    -0.411853714076E+03   -0.26204E-03   -0.29166E-05  2020   0.651E-03    0.490E-03
RMM:  38    -0.411853857134E+03   -0.14306E-03   -0.15652E-05  1793   0.550E-03    0.265E-03
RMM:  39    -0.411853931441E+03   -0.74308E-04   -0.12618E-05  1551   0.490E-03
 A1 parameter for BJ-Damping is not reasonable. Taking default.
   1 F= -.42196423E+03 E0= -.42195098E+03  d E =-.421964E+03  mag=     2.1203
 curvature:   0.00 expect dE= 0.000E+00 dE for cont linesearch  0.000E+00
 trial: gam= 0.00000 g(F)=  0.527E+00 g(S)=  0.000E+00 ort = 0.000E+00 (trialstep = 0.100E+01)
 search vector abs. value=  0.527E+00
 bond charge predicted
       N       E                     dE             d eps       ncg     rms          rms(c)
DAV:   1    -0.412277946707E+03   -0.42409E+00   -0.19165E+01  5568   0.866E+00    0.186E+00
RMM:   2    -0.412561479034E+03   -0.28353E+00   -0.42122E-01  5489   0.121E+00    0.465E+00
RMM:   3    -0.412300189268E+03    0.26129E+00   -0.22881E-02  5496   0.277E-01    0.157E+00
RMM:   4    -0.412371521082E+03   -0.71332E-01   -0.39733E-02  5492   0.320E-01    0.254E+00
RMM:   5    -0.412303656760E+03    0.67864E-01   -0.31859E-02  5490   0.298E-01    0.129E+00
RMM:   6    -0.412295336742E+03    0.83200E-02   -0.21865E-02  5493   0.233E-01    0.105E+00
RMM:   7    -0.412282019900E+03    0.13317E-01   -0.96579E-03  5474   0.153E-01    0.482E-01
RMM:   8    -0.412281889372E+03    0.13053E-03   -0.27684E-03  5217   0.835E-02    0.262E-01
RMM:   9    -0.412283579713E+03   -0.16903E-02   -0.83290E-04  4909   0.505E-02    0.189E-01
RMM:  10    -0.412284894248E+03   -0.13145E-02   -0.49780E-04  4286   0.363E-02    0.129E-01
RMM:  11    -0.412285513124E+03   -0.61888E-03   -0.47199E-04  3830   0.293E-02    0.838E-02
RMM:  12    -0.412283934866E+03    0.15783E-02   -0.38035E-04  3578   0.209E-02    0.776E-02
RMM:  13    -0.412280345614E+03    0.35893E-02   -0.29773E-04  3393   0.182E-02    0.608E-02
RMM:  14    -0.412278326912E+03    0.20187E-02   -0.10266E-04  3132   0.126E-02    0.568E-02
RMM:  15    -0.412277342145E+03    0.98477E-03   -0.55790E-05  3028   0.112E-02    0.380E-02
RMM:  16    -0.412279585778E+03   -0.22436E-02   -0.60389E-05  2903   0.113E-02    0.329E-02
RMM:  17    -0.412281599625E+03   -0.20138E-02   -0.80231E-05  2855   0.103E-02    0.294E-02
RMM:  18    -0.412284115696E+03   -0.25161E-02   -0.13304E-04  3092   0.127E-02    0.165E-02
RMM:  19    -0.412285888960E+03   -0.17733E-02   -0.91247E-05  2636   0.105E-02    0.128E-02
RMM:  20    -0.412287297250E+03   -0.14083E-02   -0.80668E-05  2450   0.978E-03    0.853E-03
RMM:  21    -0.412288072320E+03   -0.77507E-03   -0.66659E-05  2193   0.793E-03    0.477E-03
RMM:  22    -0.412288198015E+03   -0.12569E-03   -0.36190E-05  1764   0.589E-03    0.416E-03
RMM:  23    -0.412288144889E+03    0.53126E-04   -0.12343E-05  1441   0.483E-03
 A1 parameter for BJ-Damping is not reasonable. Taking default.
   2 F= -.42239655E+03 E0= -.42238392E+03  d E =-.432311E+00  mag=     1.8707
 trial-energy change:   -0.432311  1 .order   -0.429506   -0.526601   -0.332411
 step:   2.4155(harm=  2.7118)  dis= 0.05832  next Energy=  -422.639757 (dE=-0.676E+00)
 bond charge predicted
       N       E                     dE             d eps       ncg     rms          rms(c)
DAV:   1    -0.412519890352E+03   -0.23169E+00   -0.38479E+01  5488   0.115E+01    0.332E+00
RMM:   2    -0.413209411237E+03   -0.68952E+00   -0.88834E-01  5489   0.180E+00    0.731E+00
RMM:   3    -0.412583279710E+03    0.62613E+00   -0.44321E-02  5500   0.379E-01    0.318E+00
RMM:   4    -0.412838065895E+03   -0.25479E+00   -0.14543E-01  5497   0.582E-01    0.451E+00
RMM:   5    -0.412633546369E+03    0.20452E+00   -0.11392E-01  5490   0.553E-01    0.262E+00
RMM:   6    -0.412579083063E+03    0.54463E-01   -0.80701E-02  5496   0.442E-01    0.196E+00
RMM:   7    -0.412530804922E+03    0.48278E-01   -0.31145E-02  5490   0.277E-01    0.688E-01
RMM:   8    -0.412529784094E+03    0.10208E-02   -0.57917E-03  5498   0.129E-01    0.428E-01
RMM:   9    -0.412529572811E+03    0.21128E-03   -0.19477E-03  5249   0.754E-02    0.289E-01
RMM:  10    -0.412530700331E+03   -0.11275E-02   -0.14415E-03  5054   0.645E-02    0.191E-01
RMM:  11    -0.412531411644E+03   -0.71131E-03   -0.10584E-03  4819   0.477E-02    0.131E-01
RMM:  12    -0.412529908451E+03    0.15032E-02   -0.58393E-04  3987   0.307E-02    0.834E-02
RMM:  13    -0.412527064998E+03    0.28435E-02   -0.30062E-04  3574   0.200E-02    0.792E-02
RMM:  14    -0.412525301118E+03    0.17639E-02   -0.95416E-05  3206   0.134E-02    0.611E-02
RMM:  15    -0.412523569546E+03    0.17316E-02   -0.59681E-05  3129   0.110E-02    0.491E-02
RMM:  16    -0.412523089859E+03    0.47969E-03   -0.29029E-05  2859   0.912E-03    0.423E-02
RMM:  17    -0.412524240750E+03   -0.11509E-02   -0.38473E-05  2934   0.994E-03    0.332E-02
RMM:  18    -0.412527364167E+03   -0.31234E-02   -0.13853E-04  3182   0.131E-02    0.266E-02
RMM:  19    -0.412529028155E+03   -0.16640E-02   -0.73263E-05  2655   0.968E-03    0.245E-02
RMM:  20    -0.412531586171E+03   -0.25580E-02   -0.14587E-04  2959   0.122E-02    0.108E-02
RMM:  21    -0.412532851387E+03   -0.12652E-02   -0.77200E-05  2367   0.869E-03    0.958E-03
RMM:  22    -0.412533362476E+03   -0.51109E-03   -0.34790E-05  1881   0.653E-03    0.603E-03
RMM:  23    -0.412533717788E+03   -0.35531E-03   -0.68390E-05  2201   0.697E-03    0.267E-03
RMM:  24    -0.412533650429E+03    0.67359E-04   -0.17819E-05  1519   0.502E-03
 A1 parameter for BJ-Damping is not reasonable. Taking default.
   3 F= -.42263924E+03 E0= -.42262698E+03  d E =-.675009E+00  mag=     1.6186
 curvature:  -1.32 expect dE=-0.116E+00 dE for cont linesearch -0.790E-05
 trial: gam= 0.17077 g(F)=  0.882E-01 g(S)=  0.000E+00 ort =-0.178E-02 (trialstep = 0.128E+01)
 search vector abs. value=  0.103E+00
 bond charge predicted
       N       E                     dE             d eps       ncg     rms          rms(c)
DAV:   1    -0.412619047277E+03   -0.85329E-01   -0.53516E+00  5560   0.444E+00    0.142E+00
RMM:   2    -0.412653106873E+03   -0.34060E-01   -0.97658E-02  5436   0.636E-01    0.191E+00
RMM:   3    -0.412631097692E+03    0.22009E-01   -0.73141E-03  5464   0.131E-01    0.108E+00
RMM:   4    -0.412670736348E+03   -0.39639E-01   -0.23399E-02  5495   0.234E-01    0.189E+00
RMM:   5    -0.412636583378E+03    0.34153E-01   -0.20914E-02  5494   0.244E-01    0.104E+00
RMM:   6    -0.412623408719E+03    0.13175E-01   -0.10575E-02  5498   0.165E-01    0.596E-01
RMM:   7    -0.412617232497E+03    0.61762E-02   -0.35786E-03  5407   0.102E-01    0.190E-01
RMM:   8    -0.412616958943E+03    0.27355E-03   -0.62266E-04  4676   0.409E-02    0.109E-01
RMM:   9    -0.412617126560E+03   -0.16762E-03   -0.13228E-04  3336   0.215E-02    0.649E-02
RMM:  10    -0.412617705934E+03   -0.57937E-03   -0.13436E-04  3403   0.193E-02    0.483E-02
RMM:  11    -0.412618244523E+03   -0.53859E-03   -0.73654E-05  3144   0.143E-02    0.308E-02
RMM:  12    -0.412618872556E+03   -0.62803E-03   -0.37589E-05  2868   0.990E-03    0.186E-02
RMM:  13    -0.412619475360E+03   -0.60280E-03   -0.22527E-05  2483   0.707E-03    0.205E-02
RMM:  14    -0.412620084008E+03   -0.60865E-03   -0.17180E-05  2035   0.618E-03    0.127E-02
RMM:  15    -0.412620443323E+03   -0.35932E-03   -0.93375E-06  1558   0.500E-03    0.105E-02
RMM:  16    -0.412620996125E+03   -0.55280E-03   -0.23449E-05  1865   0.600E-03    0.860E-03
RMM:  17    -0.412621422478E+03   -0.42635E-03   -0.26288E-05  1908   0.582E-03    0.776E-03
RMM:  18    -0.412621664593E+03   -0.24212E-03   -0.19520E-05  1666   0.531E-03    0.705E-03
RMM:  19    -0.412621845451E+03   -0.18086E-03   -0.21593E-05  1706   0.534E-03    0.410E-03
RMM:  20    -0.412621914386E+03   -0.68935E-04   -0.10341E-05  1382   0.461E-03
 A1 parameter for BJ-Damping is not reasonable. Taking default.
   4 F= -.42273290E+03 E0= -.42272020E+03  d E =-.936618E-01  mag=     1.5937
 trial-energy change:   -0.093662  1 .order   -0.092952   -0.112715   -0.073190
 step:   3.1609(harm=  3.6591)  dis= 0.01556  next Energy=  -422.788686 (dE=-0.149E+00)
 bond charge predicted
       N       E                     dE             d eps       ncg     rms          rms(c)
DAV:   1    -0.412667420368E+03   -0.45575E-01   -0.11454E+01  5488   0.647E+00    0.218E+00
RMM:   2    -0.412738280430E+03   -0.70860E-01   -0.21291E-01  5477   0.934E-01    0.281E+00
RMM:   3    -0.412691801335E+03    0.46479E-01   -0.15181E-02  5523   0.189E-01    0.168E+00
RMM:   4    -0.412782768250E+03   -0.90967E-01   -0.53168E-02  5496   0.355E-01    0.275E+00
RMM:   5    -0.412708839419E+03    0.73929E-01   -0.49918E-02  5493   0.375E-01    0.161E+00
RMM:   6    -0.412677722318E+03    0.31117E-01   -0.25183E-02  5499   0.254E-01    0.950E-01
RMM:   7    -0.412662497539E+03    0.15225E-01   -0.82612E-03  5478   0.155E-01    0.316E-01
RMM:   8    -0.412661777701E+03    0.71984E-03   -0.14041E-03  5086   0.623E-02    0.175E-01
RMM:   9    -0.412662327541E+03   -0.54984E-03   -0.29837E-04  3824   0.323E-02    0.115E-01
RMM:  10    -0.412663776954E+03   -0.14494E-02   -0.38696E-04  3999   0.334E-02    0.863E-02
RMM:  11    -0.412664916830E+03   -0.11399E-02   -0.20323E-04  3505   0.238E-02    0.557E-02
RMM:  12    -0.412666244801E+03   -0.13280E-02   -0.97864E-05  3234   0.167E-02    0.291E-02
RMM:  13    -0.412668007301E+03   -0.17625E-02   -0.79489E-05  3171   0.126E-02    0.272E-02
RMM:  14    -0.412668818095E+03   -0.81079E-03   -0.32047E-05  2559   0.829E-03    0.204E-02
RMM:  15    -0.412669520110E+03   -0.70202E-03   -0.20901E-05  2106   0.671E-03    0.171E-02
RMM:  16    -0.412670200959E+03   -0.68085E-03   -0.25556E-05  2106   0.649E-03    0.134E-02
RMM:  17    -0.412670979889E+03   -0.77893E-03   -0.42059E-05  2437   0.719E-03    0.117E-02
RMM:  18    -0.412671469991E+03   -0.49010E-03   -0.29239E-05  1931   0.591E-03    0.988E-03
RMM:  19    -0.412671846494E+03   -0.37650E-03   -0.28852E-05  1968   0.588E-03    0.775E-03
RMM:  20    -0.412672083237E+03   -0.23674E-03   -0.20096E-05  1758   0.539E-03    0.544E-03
RMM:  21    -0.412672189148E+03   -0.10591E-03   -0.98187E-06  1440   0.470E-03    0.363E-03
RMM:  22    -0.412672251762E+03   -0.62614E-04   -0.84596E-06  1283   0.445E-03
 A1 parameter for BJ-Damping is not reasonable. Taking default.
   5 F= -.42279112E+03 E0= -.42277751E+03  d E =-.151874E+00  mag=     1.5538
 curvature:  -2.05 expect dE=-0.728E-01 dE for cont linesearch -0.162E-03
 trial: gam= 0.28410 g(F)=  0.355E-01 g(S)=  0.000E+00 ort = 0.285E-02 (trialstep = 0.166E+01)
 search vector abs. value=  0.455E-01
 bond charge predicted
       N       E                     dE             d eps       ncg     rms          rms(c)
DAV:   1    -0.412714154782E+03   -0.41966E-01   -0.54565E+00  5496   0.515E+00    0.761E-01
RMM:   2    -0.412723491788E+03   -0.93370E-02   -0.10757E-01  5426   0.686E-01    0.662E-01
RMM:   3    -0.412729022587E+03   -0.55308E-02   -0.44177E-03  5403   0.110E-01    0.738E-01
RMM:   4    -0.412730774122E+03   -0.17515E-02   -0.29265E-03  5224   0.835E-02    0.810E-01
RMM:   5    -0.412729312029E+03    0.14621E-02   -0.54237E-03  5436   0.116E-01    0.676E-01
RMM:   6    -0.412724597637E+03    0.47144E-02   -0.33797E-03  5439   0.932E-02    0.422E-01
RMM:   7    -0.412721437386E+03    0.31603E-02   -0.15755E-03  5072   0.628E-02    0.111E-01
RMM:   8    -0.412721348253E+03    0.89133E-04   -0.22157E-04  3626   0.258E-02
 A1 parameter for BJ-Damping is not reasonable. Taking default.
   6 F= -.42284146E+03 E0= -.42282761E+03  d E =-.503444E-01  mag=     1.5573
 trial-energy change:   -0.050344  1 .order   -0.050220   -0.060285   -0.040155
 step:   4.9673(harm=  4.9673)  dis= 0.02455  next Energy=  -422.881387 (dE=-0.903E-01)
 bond charge predicted
       N       E                     dE             d eps       ncg     rms          rms(c)
DAV:   1    -0.412729815004E+03   -0.83776E-02   -0.21706E+01  5488   0.103E+01    0.154E+00
RMM:   2    -0.412767757207E+03   -0.37942E-01   -0.43416E-01  5444   0.138E+00    0.128E+00
RMM:   3    -0.412799037729E+03   -0.31281E-01   -0.20559E-02  5537   0.240E-01    0.166E+00
RMM:   4    -0.412780220141E+03    0.18818E-01   -0.99408E-03  5495   0.160E-01    0.125E+00
RMM:   5    -0.412794836548E+03   -0.14616E-01   -0.22129E-02  5489   0.232E-01    0.147E+00
RMM:   6    -0.412769877241E+03    0.24959E-01   -0.13064E-02  5490   0.183E-01    0.825E-01
RMM:   7    -0.412758428813E+03    0.11448E-01   -0.61845E-03  5453   0.124E-01    0.302E-01
RMM:   8    -0.412757994435E+03    0.43438E-03   -0.11273E-03  5061   0.565E-02    0.198E-01
RMM:   9    -0.412757946451E+03    0.47985E-04   -0.31079E-04  3941   0.301E-02
 A1 parameter for BJ-Damping is not reasonable. Taking default.
   7 F= -.42288051E+03 E0= -.42286559E+03  d E =-.893895E-01  mag=     1.5616
 curvature:  -3.11 expect dE=-0.103E+00 dE for cont linesearch -0.242E-06
 trial: gam= 0.98348 g(F)=  0.332E-01 g(S)=  0.000E+00 ort = 0.595E-04 (trialstep = 0.137E+01)
 search vector abs. value=  0.772E-01
 bond charge predicted
       N       E                     dE             d eps       ncg     rms          rms(c)
DAV:   1    -0.412790545973E+03   -0.32552E-01   -0.60047E+00  5496   0.541E+00    0.617E-01
RMM:   2    -0.412817407247E+03   -0.26861E-01   -0.11387E-01  5462   0.704E-01    0.116E+00
RMM:   3    -0.412802747085E+03    0.14660E-01   -0.44999E-03  5418   0.114E-01    0.566E-01
RMM:   4    -0.412802286112E+03    0.46097E-03   -0.35942E-03  5338   0.101E-01    0.508E-01
RMM:   5    -0.412800665368E+03    0.16207E-02   -0.21234E-03  5260   0.744E-02    0.369E-01
RMM:   6    -0.412800449745E+03    0.21562E-03   -0.22883E-03  5323   0.771E-02    0.276E-01
RMM:   7    -0.412799316645E+03    0.11331E-02   -0.10451E-03  5005   0.512E-02    0.119E-01
RMM:   8    -0.412799332358E+03   -0.15713E-04   -0.22084E-04  3607   0.244E-02
 A1 parameter for BJ-Damping is not reasonable. Taking default.
   8 F= -.42292108E+03 E0= -.42290653E+03  d E =-.405736E-01  mag=     1.5908
 trial-energy change:   -0.040574  1 .order   -0.038824   -0.045363   -0.032284
 step:   2.6756(harm=  4.7362)  dis= 0.01706  next Energy=  -422.938112 (dE=-0.576E-01)
 bond charge predicted
       N       E                     dE             d eps       ncg     rms          rms(c)
DAV:   1    -0.412818224472E+03   -0.18908E-01   -0.55215E+00  5488   0.518E+00    0.599E-01
RMM:   2    -0.412835467658E+03   -0.17243E-01   -0.10266E-01  5445   0.669E-01    0.854E-01
RMM:   3    -0.412830919118E+03    0.45485E-02   -0.39369E-03  5372   0.102E-01    0.606E-01
RMM:   4    -0.412830475153E+03    0.44397E-03   -0.31536E-03  5323   0.924E-02    0.588E-01
RMM:   5    -0.412826803676E+03    0.36715E-02   -0.20591E-03  5295   0.751E-02    0.327E-01
RMM:   6    -0.412826678406E+03    0.12527E-03   -0.21462E-03  5282   0.749E-02    0.287E-01
RMM:   7    -0.412825144387E+03    0.15340E-02   -0.98459E-04  5005   0.499E-02    0.134E-01
RMM:   8    -0.412824873163E+03    0.27122E-03   -0.23289E-04  3763   0.258E-02    0.671E-02
RMM:   9    -0.412824808902E+03    0.64260E-04   -0.67800E-05  3056   0.160E-02
 A1 parameter for BJ-Damping is not reasonable. Taking default.
   9 F= -.42294576E+03 E0= -.42293079E+03  d E =-.652578E-01  mag=     1.6000
 curvature:  -3.45 expect dE=-0.446E-01 dE for cont linesearch -0.902E-02
 ZBRENT: increasing intervall
 opt :   5.2956  next Energy=  -422.958285 (dE=-0.778E-01)
 bond charge predicted
       N       E                     dE             d eps       ncg     rms          rms(c)
DAV:   1    -0.412811405589E+03    0.13468E-01   -0.22081E+01  5496   0.104E+01    0.122E+00
RMM:   2    -0.412882259648E+03   -0.70854E-01   -0.41792E-01  5474   0.134E+00    0.174E+00
RMM:   3    -0.412858486138E+03    0.23774E-01   -0.15662E-02  5501   0.205E-01    0.117E+00
RMM:   4    -0.412858104663E+03    0.38148E-03   -0.12778E-02  5495   0.186E-01    0.120E+00
RMM:   5    -0.412843903305E+03    0.14201E-01   -0.86168E-03  5493   0.153E-01    0.693E-01
RMM:   6    -0.412842033539E+03    0.18698E-02   -0.95169E-03  5494   0.158E-01    0.568E-01
RMM:   7    -0.412834785164E+03    0.72484E-02   -0.41745E-03  5457   0.102E-01    0.230E-01
RMM:   8    -0.412833342111E+03    0.14431E-02   -0.94035E-04  4722   0.488E-02    0.152E-01
RMM:   9    -0.412833033837E+03    0.30827E-03   -0.25506E-04  3740   0.266E-02    0.771E-02
RMM:  10    -0.412833268637E+03   -0.23480E-03   -0.11781E-04  3311   0.203E-02    0.555E-02
RMM:  11    -0.412833678720E+03   -0.41008E-03   -0.60772E-05  3136   0.147E-02    0.360E-02
RMM:  12    -0.412834550412E+03   -0.87169E-03   -0.46172E-05  3053   0.116E-02    0.271E-02
RMM:  13    -0.412835063415E+03   -0.51300E-03   -0.17536E-05  2457   0.697E-03    0.231E-02
RMM:  14    -0.412835932884E+03   -0.86947E-03   -0.14843E-05  1726   0.549E-03    0.184E-02
RMM:  15    -0.412836981715E+03   -0.10488E-02   -0.25221E-05  2146   0.631E-03    0.183E-02
RMM:  16    -0.412838809612E+03   -0.18279E-02   -0.91171E-05  2803   0.929E-03    0.111E-02
RMM:  17    -0.412839652354E+03   -0.84274E-03   -0.68297E-05  2323   0.772E-03    0.972E-03
RMM:  18    -0.412839907094E+03   -0.25474E-03   -0.27879E-05  1764   0.575E-03    0.567E-03
RMM:  19    -0.412840072034E+03   -0.16494E-03   -0.28023E-05  1847   0.566E-03    0.375E-03
RMM:  20    -0.412840080779E+03   -0.87446E-05   -0.18089E-05  1601   0.497E-03
 A1 parameter for BJ-Damping is not reasonable. Taking default.
  10 F= -.42295941E+03 E0= -.42294336E+03  d E =-.789080E-01  mag=     1.4949
 curvature:  -4.79 expect dE=-0.135E+00 dE for cont linesearch -0.158E-02
 trial: gam= 0.99582 g(F)=  0.282E-01 g(S)=  0.000E+00 ort =-0.505E-02 (trialstep = 0.175E+01)
 search vector abs. value=  0.948E-01
 bond charge predicted
       N       E                     dE             d eps       ncg     rms          rms(c)
DAV:   1    -0.412853774542E+03   -0.13703E-01   -0.11688E+01  5496   0.757E+00    0.109E+00
RMM:   2    -0.412887166689E+03   -0.33392E-01   -0.20417E-01  5469   0.976E-01    0.123E+00
RMM:   3    -0.412888624480E+03   -0.14578E-02   -0.11319E-02  5510   0.166E-01    0.125E+00
RMM:   4    -0.412879723667E+03    0.89008E-02   -0.10204E-02  5502   0.160E-01    0.999E-01
RMM:   5    -0.412871783186E+03    0.79405E-02   -0.74566E-03  5490   0.144E-01    0.671E-01
RMM:   6    -0.412869089573E+03    0.26936E-02   -0.79773E-03  5490   0.141E-01    0.466E-01
RMM:   7    -0.412864630935E+03    0.44586E-02   -0.20662E-03  5268   0.745E-02    0.167E-01
RMM:   8    -0.412864228066E+03    0.40287E-03   -0.45368E-04  4311   0.340E-02    0.102E-01
RMM:   9    -0.412863982366E+03    0.24570E-03   -0.98913E-05  3219   0.190E-02    0.476E-02
RMM:  10    -0.412863953992E+03    0.28374E-04   -0.65970E-05  3109   0.149E-02
 A1 parameter for BJ-Damping is not reasonable. Taking default.
  11 F= -.42298469E+03 E0= -.42296811E+03  d E =-.252704E-01  mag=     1.4572
 trial-energy change:   -0.025270  1 .order   -0.026992   -0.040678   -0.013306
 step:   2.6063(harm=  2.6063)  dis= 0.01754  next Energy=  -422.989640 (dE=-0.302E-01)
 bond charge predicted
       N       E                     dE             d eps       ncg     rms          rms(c)
DAV:   1    -0.412863527272E+03    0.45509E-03   -0.27620E+00  5536   0.368E+00    0.535E-01
RMM:   2    -0.412871961892E+03   -0.84346E-02   -0.48148E-02  5432   0.474E-01    0.615E-01
RMM:   3    -0.412871827977E+03    0.13391E-03   -0.27101E-03  5314   0.817E-02    0.618E-01
RMM:   4    -0.412869589170E+03    0.22388E-02   -0.25094E-03  5176   0.798E-02    0.480E-01
RMM:   5    -0.412867892203E+03    0.16970E-02   -0.17853E-03  5261   0.708E-02    0.314E-01
RMM:   6    -0.412867472144E+03    0.42006E-03   -0.19388E-03  5182   0.690E-02    0.223E-01
RMM:   7    -0.412866562090E+03    0.91005E-03   -0.45028E-04  4460   0.352E-02    0.732E-02
RMM:   8    -0.412866542419E+03    0.19671E-04   -0.83043E-05  3150   0.160E-02
 A1 parameter for BJ-Damping is not reasonable. Taking default.
  12 F= -.42298794E+03 E0= -.42297132E+03  d E =-.285265E-01  mag=     1.4398
 curvature:  -5.32 expect dE=-0.492E-01 dE for cont linesearch -0.997E-05
 trial: gam= 0.02415 g(F)=  0.924E-02 g(S)=  0.000E+00 ort =-0.421E-03 (trialstep = 0.192E+01)
 search vector abs. value=  0.928E-02
 bond charge predicted
       N       E                     dE             d eps       ncg     rms          rms(c)
DAV:   1    -0.412877877461E+03   -0.11315E-01   -0.15930E+00  5528   0.256E+00    0.592E-01
RMM:   2    -0.412881114653E+03   -0.32372E-02   -0.30925E-02  5401   0.341E-01    0.508E-01
RMM:   3    -0.412883848805E+03   -0.27342E-02   -0.28759E-03  5363   0.870E-02    0.478E-01
RMM:   4    -0.412883932718E+03   -0.83913E-04   -0.29997E-03  5412   0.877E-02    0.422E-01
RMM:   5    -0.412885313203E+03   -0.13805E-02   -0.25735E-03  5367   0.789E-02    0.469E-01
RMM:   6    -0.412884170172E+03    0.11430E-02   -0.94886E-04  4998   0.507E-02    0.366E-01
RMM:   7    -0.412881527086E+03    0.26431E-02   -0.49944E-04  4433   0.392E-02    0.622E-02
RMM:   8    -0.412881504749E+03    0.22337E-04   -0.71024E-05  3059   0.170E-02
 A1 parameter for BJ-Damping is not reasonable. Taking default.
  13 F= -.42300187E+03 E0= -.42298517E+03  d E =-.139239E-01  mag=     1.4391
 trial-energy change:   -0.013924  1 .order   -0.012323   -0.017764   -0.006882
 step:   2.4920(harm=  3.1411)  dis= 0.00914  next Energy=  -423.002921 (dE=-0.150E-01)
 bond charge predicted
       N       E                     dE             d eps       ncg     rms          rms(c)
DAV:   1    -0.412883195811E+03   -0.16687E-02   -0.13910E-01  5680   0.754E-01    0.172E-01
RMM:   2    -0.412883615016E+03   -0.41921E-03   -0.27332E-03  5039   0.102E-01    0.160E-01
RMM:   3    -0.412884195030E+03   -0.58001E-03   -0.19267E-04  3562   0.223E-02    0.243E-01
RMM:   4    -0.412883762870E+03    0.43216E-03   -0.16517E-04  3365   0.248E-02    0.111E-01
RMM:   5    -0.412883942074E+03   -0.17920E-03   -0.25720E-04  3804   0.285E-02    0.120E-01
RMM:   6    -0.412883838525E+03    0.10355E-03   -0.11671E-04  3185   0.204E-02    0.815E-02
RMM:   7    -0.412883726354E+03    0.11217E-03   -0.40750E-05  2868   0.129E-02    0.193E-02
RMM:   8    -0.412883733725E+03   -0.73714E-05   -0.68357E-06  2085   0.606E-03
 A1 parameter for BJ-Damping is not reasonable. Taking default.
  14 F= -.42300379E+03 E0= -.42298712E+03  d E =-.158460E-01  mag=     1.4447
 curvature:  -1.13 expect dE=-0.349E-02 dE for cont linesearch -0.474E-03
 ZBRENT: increasing intervall
 opt :   3.6275  next Energy=  -423.004206 (dE=-0.163E-01)
 bond charge predicted
       N       E                     dE             d eps       ncg     rms          rms(c)
DAV:   1    -0.412884020636E+03   -0.29428E-03   -0.55477E-01  5520   0.150E+00    0.341E-01
RMM:   2    -0.412884991141E+03   -0.97051E-03   -0.10669E-02  5301   0.200E-01    0.285E-01
RMM:   3    -0.412886145821E+03   -0.11547E-02   -0.96930E-04  4992   0.508E-02    0.316E-01
RMM:   4    -0.412886893157E+03   -0.74734E-03   -0.85997E-04  4988   0.466E-02    0.381E-01
RMM:   5    -0.412886372319E+03    0.52084E-03   -0.77552E-04  4841   0.444E-02    0.295E-01
RMM:   6    -0.412885140079E+03    0.12322E-02   -0.51559E-04  4561   0.395E-02    0.165E-01
RMM:   7    -0.412884614007E+03    0.52607E-03   -0.19709E-04  3537   0.245E-02    0.332E-02
RMM:   8    -0.412884622702E+03   -0.86950E-05   -0.29700E-05  2743   0.115E-02
 A1 parameter for BJ-Damping is not reasonable. Taking default.
  15 F= -.42300406E+03 E0= -.42298738E+03  d E =-.161203E-01  mag=     1.4544
 curvature:  -1.00 expect dE=-0.574E-02 dE for cont linesearch -0.170E-03
 ZBRENT: bracketing found
 ZBRENT: interpolating
 opt :   3.1855  next Energy=  -423.004339 (dE=-0.164E-01)
 bond charge predicted
       N       E                     dE             d eps       ncg     rms          rms(c)
DAV:   1    -0.412884555132E+03    0.58875E-04   -0.84025E-02  5640   0.582E-01    0.133E-01
RMM:   2    -0.412884826634E+03   -0.27150E-03   -0.16300E-03  4753   0.785E-02    0.133E-01
RMM:   3    -0.412884965908E+03   -0.13927E-03   -0.71340E-05  3013   0.157E-02    0.139E-01
RMM:   4    -0.412885029030E+03   -0.63122E-04   -0.13405E-04  3253   0.206E-02
 A1 parameter for BJ-Damping is not reasonable. Taking default.
  16 F= -.42300471E+03 E0= -.42298805E+03  d E =-.167661E-01  mag=     1.4574
 curvature:  -1.63 expect dE=-0.721E-02 dE for cont linesearch -0.136E-05
 trial: gam= 0.48756 g(F)=  0.442E-02 g(S)=  0.000E+00 ort =-0.879E-04 (trialstep = 0.218E+01)
 search vector abs. value=  0.654E-02
 bond charge predicted
       N       E                     dE             d eps       ncg     rms          rms(c)
DAV:   1    -0.412894789650E+03   -0.98237E-02   -0.11800E+00  5496   0.220E+00    0.270E-01
RMM:   2    -0.412897974775E+03   -0.31851E-02   -0.22007E-02  5444   0.291E-01    0.368E-01
RMM:   3    -0.412896523805E+03    0.14510E-02   -0.15439E-03  5207   0.623E-02    0.249E-01
RMM:   4    -0.412896401878E+03    0.12193E-03   -0.55838E-04  4272   0.371E-02    0.239E-01
RMM:   5    -0.412896164267E+03    0.23761E-03   -0.26936E-04  3831   0.286E-02    0.199E-01
RMM:   6    -0.412896104488E+03    0.59779E-04   -0.48870E-04  4478   0.376E-02
 A1 parameter for BJ-Damping is not reasonable. Taking default.
  17 F= -.42301248E+03 E0= -.42299588E+03  d E =-.777649E-02  mag=     1.4516
 trial-energy change:   -0.007776  1 .order   -0.007537   -0.009523   -0.005550
 step:   5.2167(harm=  5.2167)  dis= 0.01452  next Energy=  -423.016120 (dE=-0.114E-01)
 bond charge predicted
       N       E                     dE             d eps       ncg     rms          rms(c)
DAV:   1    -0.412902184998E+03   -0.60207E-02   -0.22906E+00  5488   0.306E+00    0.370E-01
RMM:   2    -0.412906954259E+03   -0.47693E-02   -0.40787E-02  5449   0.394E-01    0.454E-01
RMM:   3    -0.412905525962E+03    0.14283E-02   -0.24327E-03  5333   0.819E-02    0.332E-01
RMM:   4    -0.412904575491E+03    0.95047E-03   -0.11565E-03  4947   0.551E-02    0.221E-01
RMM:   5    -0.412905300950E+03   -0.72546E-03   -0.92501E-04  5008   0.488E-02    0.289E-01
RMM:   6    -0.412905895143E+03   -0.59419E-03   -0.54851E-04  4583   0.378E-02    0.351E-01
RMM:   7    -0.412904086782E+03    0.18084E-02   -0.50068E-04  4448   0.378E-02    0.110E-01
RMM:   8    -0.412904011419E+03    0.75363E-04   -0.14057E-04  3343   0.227E-02
 A1 parameter for BJ-Damping is not reasonable. Taking default.
  18 F= -.42301579E+03 E0= -.42299908E+03  d E =-.110786E-01  mag=     1.4301
 curvature:  -3.90 expect dE=-0.112E-01 dE for cont linesearch -0.982E-07
 trial: gam= 0.64850 g(F)=  0.286E-02 g(S)=  0.000E+00 ort = 0.128E-04 (trialstep = 0.278E+01)
 search vector abs. value=  0.563E-02
 bond charge predicted
       N       E                     dE             d eps       ncg     rms          rms(c)
DAV:   1    -0.412910539133E+03   -0.64524E-02   -0.19027E+00  5488   0.286E+00    0.364E-01
RMM:   2    -0.412916035728E+03   -0.54966E-02   -0.33568E-02  5411   0.355E-01    0.500E-01
RMM:   3    -0.412914495314E+03    0.15404E-02   -0.13753E-03  5112   0.588E-02    0.343E-01
RMM:   4    -0.412914899793E+03   -0.40448E-03   -0.11887E-03  5099   0.566E-02    0.393E-01
RMM:   5    -0.412913450208E+03    0.14496E-02   -0.80691E-04  4910   0.478E-02    0.216E-01
RMM:   6    -0.412913736798E+03   -0.28659E-03   -0.85009E-04  4921   0.466E-02    0.217E-01
RMM:   7    -0.412913107289E+03    0.62951E-03   -0.51714E-04  4562   0.369E-02    0.837E-02
RMM:   8    -0.412912990785E+03    0.11650E-03   -0.98385E-05  3091   0.180E-02    0.366E-02
RMM:   9    -0.412912981060E+03    0.97249E-05   -0.21556E-05  2551   0.958E-03
 A1 parameter for BJ-Damping is not reasonable. Taking default.
  19 F= -.42302169E+03 E0= -.42300511E+03  d E =-.590489E-02  mag=     1.4162
 trial-energy change:   -0.005905  1 .order   -0.005785   -0.008000   -0.003570
 step:   5.0284(harm=  5.0284)  dis= 0.01300  next Energy=  -423.023009 (dE=-0.722E-02)
 bond charge predicted
       N       E                     dE             d eps       ncg     rms          rms(c)
DAV:   1    -0.412915449639E+03   -0.24589E-02   -0.12358E+00  5488   0.230E+00    0.288E-01
RMM:   2    -0.412918517748E+03   -0.30681E-02   -0.21678E-02  5388   0.285E-01    0.357E-01
RMM:   3    -0.412918126651E+03    0.39110E-03   -0.85830E-04  4660   0.462E-02    0.284E-01
RMM:   4    -0.412918143858E+03   -0.17207E-04   -0.69750E-04  4897   0.442E-02
 A1 parameter for BJ-Damping is not reasonable. Taking default.
  20 F= -.42302438E+03 E0= -.42300811E+03  d E =-.859887E-02  mag=     1.4143
 curvature:  -4.93 expect dE=-0.103E-01 dE for cont linesearch -0.425E-04
 trial: gam= 0.69029 g(F)=  0.209E-02 g(S)=  0.000E+00 ort = 0.220E-03 (trialstep = 0.323E+01)
 search vector abs. value=  0.508E-02
 bond charge predicted
       N       E                     dE             d eps       ncg     rms          rms(c)
DAV:   1    -0.412924409161E+03   -0.62825E-02   -0.22389E+00  5488   0.327E+00    0.511E-01
RMM:   2    -0.412941759517E+03   -0.17350E-01   -0.45153E-02  5451   0.442E-01    0.915E-01
RMM:   3    -0.412931379608E+03    0.10380E-01   -0.33325E-03  5370   0.977E-02    0.631E-01
RMM:   4    -0.412928655948E+03    0.27237E-02   -0.19707E-03  5189   0.766E-02    0.438E-01
RMM:   5    -0.412927542459E+03    0.11135E-02   -0.18179E-03  5240   0.715E-02    0.311E-01
RMM:   6    -0.412927348720E+03    0.19374E-03   -0.16648E-03  5087   0.643E-02    0.252E-01
RMM:   7    -0.412926398776E+03    0.94994E-03   -0.81284E-04  4549   0.435E-02    0.786E-02
RMM:   8    -0.412926339077E+03    0.59699E-04   -0.11868E-04  3142   0.200E-02
 A1 parameter for BJ-Damping is not reasonable. Taking default.
  21 F= -.42302868E+03 E0= -.42301276E+03  d E =-.429401E-02  mag=     1.4035
 trial-energy change:   -0.004294  1 .order   -0.005823   -0.007256   -0.004391
 step:   8.1878(harm=  8.1878)  dis= 0.01424  next Energy=  -423.033572 (dE=-0.919E-02)
 bond charge predicted
       N       E                     dE             d eps       ncg     rms          rms(c)
DAV:   1    -0.412930638111E+03   -0.42393E-02   -0.52869E+00  5488   0.502E+00    0.691E-01
RMM:   2    -0.412949106678E+03   -0.18469E-01   -0.96862E-02  5469   0.657E-01    0.932E-01
RMM:   3    -0.412945912203E+03    0.31945E-02   -0.49773E-03  5501   0.119E-01    0.846E-01
RMM:   4    -0.412939183674E+03    0.67285E-02   -0.40276E-03  5303   0.109E-01    0.481E-01
RMM:   5    -0.412938894156E+03    0.28952E-03   -0.33364E-03  5303   0.913E-02    0.384E-01
RMM:   6    -0.412939697952E+03   -0.80380E-03   -0.24782E-03  5282   0.759E-02    0.417E-01
RMM:   7    -0.412936840338E+03    0.28576E-02   -0.12824E-03  5043   0.577E-02    0.130E-01
RMM:   8    -0.412936576620E+03    0.26372E-03   -0.24973E-04  3750   0.271E-02    0.623E-02
RMM:   9    -0.412936516979E+03    0.59640E-04   -0.64971E-05  3013   0.158E-02
 A1 parameter for BJ-Damping is not reasonable. Taking default.
  22 F= -.42303288E+03 E0= -.42301801E+03  d E =-.849829E-02  mag=     1.3778
 curvature:  -9.27 expect dE=-0.658E-01 dE for cont linesearch -0.184E-03
 trial: gam= 3.14971 g(F)=  0.711E-02 g(S)=  0.000E+00 ort = 0.317E-03 (trialstep = 0.361E+00)
 search vector abs. value=  0.595E-01
 bond charge predicted
       N       E                     dE             d eps       ncg     rms          rms(c)
DAV:   1    -0.412940533574E+03   -0.39570E-02   -0.30432E-01  5528   0.118E+00    0.159E-01
RMM:   2    -0.412942752640E+03   -0.22191E-02   -0.56789E-03  5376   0.157E-01    0.342E-01
RMM:   3    -0.412941213440E+03    0.15392E-02   -0.38131E-04  4066   0.344E-02    0.185E-01
RMM:   4    -0.412940895137E+03    0.31830E-03   -0.28242E-04  3851   0.313E-02    0.116E-01
RMM:   5    -0.412940774121E+03    0.12102E-03   -0.16488E-04  3300   0.250E-02    0.699E-02
RMM:   6    -0.412940855198E+03   -0.81077E-04   -0.10393E-04  3185   0.190E-02
 A1 parameter for BJ-Damping is not reasonable. Taking default.
  23 F= -.42303597E+03 E0= -.42302151E+03  d E =-.308454E-02  mag=     1.3614
 ZBRENT: can't locate minimum, use default step
 trial-energy change:   -0.003085  1 .order   -0.003045   -0.002923   -0.003167
 step:   1.4426(harm=  1.4426)  dis= 0.01060  next Energy=  -423.046531 (dE=-0.136E-01)
 bond charge predicted
       N       E                     dE             d eps       ncg     rms          rms(c)
DAV:   1    -0.412951638605E+03   -0.10864E-01   -0.27298E+00  5488   0.352E+00    0.443E-01
RMM:   2    -0.412962149374E+03   -0.10511E-01   -0.47721E-02  5464   0.460E-01    0.710E-01
RMM:   3    -0.412958203940E+03    0.39454E-02   -0.27145E-03  5438   0.867E-02    0.528E-01
RMM:   4    -0.412955623994E+03    0.25799E-02   -0.20583E-03  5188   0.776E-02    0.335E-01
RMM:   5    -0.412955213921E+03    0.41007E-03   -0.12791E-03  5090   0.588E-02    0.241E-01
RMM:   6    -0.412955318223E+03   -0.10430E-03   -0.10859E-03  5032   0.520E-02    0.255E-01
RMM:   7    -0.412954246267E+03    0.10720E-02   -0.53276E-04  4558   0.383E-02    0.669E-02
RMM:   8    -0.412954227742E+03    0.18525E-04   -0.10135E-04  3153   0.183E-02
 A1 parameter for BJ-Damping is not reasonable. Taking default.
  24 F= -.42304558E+03 E0= -.42303198E+03  d E =-.126981E-01  mag=     1.3295
 curvature:  -8.18 expect dE=-0.985E-01 dE for cont linesearch -0.112E-01
 ZBRENT: increasing intervall
 opt :   3.6064  next Energy=  -423.065642 (dE=-0.328E-01)
 bond charge predicted
       N       E                     dE             d eps       ncg     rms          rms(c)
DAV:   1    -0.412966978194E+03   -0.12732E-01   -0.10901E+01  5488   0.704E+00    0.832E-01
RMM:   2    -0.412992427180E+03   -0.25449E-01   -0.18461E-01  5477   0.903E-01    0.999E-01
RMM:   3    -0.412996842324E+03   -0.44151E-02   -0.88151E-03  5532   0.155E-01    0.108E+00
RMM:   4    -0.412982408530E+03    0.14434E-01   -0.66181E-03  5424   0.139E-01    0.577E-01
RMM:   5    -0.412982176808E+03    0.23172E-03   -0.51333E-03  5424   0.117E-01    0.470E-01
RMM:   6    -0.412982696902E+03   -0.52009E-03   -0.35160E-03  5453   0.924E-02    0.480E-01
RMM:   7    -0.412979095990E+03    0.36009E-02   -0.17981E-03  5179   0.687E-02    0.164E-01
RMM:   8    -0.412978920593E+03    0.17540E-03   -0.50517E-04  4277   0.362E-02    0.144E-01
RMM:   9    -0.412978656114E+03    0.26448E-03   -0.16344E-04  3460   0.221E-02    0.514E-02
RMM:  10    -0.412978601929E+03    0.54185E-04   -0.32337E-05  2887   0.113E-02
 A1 parameter for BJ-Damping is not reasonable. Taking default.
  25 F= -.42306245E+03 E0= -.42304821E+03  d E =-.295642E-01  mag=     1.2915
 curvature: -14.65 expect dE=-0.263E+00 dE for cont linesearch -0.895E-02
 ZBRENT: increasing intervall
 opt :   7.9342  next Energy=  -423.075556 (dE=-0.427E-01)
 bond charge predicted
       N       E                     dE             d eps       ncg     rms          rms(c)
DAV:   1    -0.412955072104E+03    0.23584E-01   -0.43620E+01  5488   0.141E+01    0.166E+00
RMM:   2    -0.413073723402E+03   -0.11865E+00   -0.75240E-01  5496   0.181E+00    0.227E+00
RMM:   3    -0.413074836796E+03   -0.11134E-02   -0.35209E-02  5532   0.313E-01    0.219E+00
RMM:   4    -0.413016658821E+03    0.58178E-01   -0.28881E-02  5487   0.290E-01    0.120E+00
RMM:   5    -0.413010500171E+03    0.61587E-02   -0.21079E-02  5491   0.235E-01    0.874E-01
RMM:   6    -0.413015386920E+03   -0.48867E-02   -0.13516E-02  5495   0.182E-01    0.964E-01
RMM:   7    -0.413002622135E+03    0.12765E-01   -0.68310E-03  5491   0.134E-01    0.454E-01
RMM:   8    -0.413001825762E+03    0.79637E-03   -0.31245E-03  5334   0.886E-02    0.361E-01
RMM:   9    -0.413000536470E+03    0.12893E-02   -0.11026E-03  4913   0.511E-02    0.132E-01
RMM:  10    -0.413000784464E+03   -0.24799E-03   -0.26123E-04  3762   0.264E-02    0.840E-02
RMM:  11    -0.413000931205E+03   -0.14674E-03   -0.13262E-04  3419   0.202E-02    0.500E-02
RMM:  12    -0.413000842627E+03    0.88578E-04   -0.13068E-04  3421   0.163E-02
 A1 parameter for BJ-Damping is not reasonable. Taking default.
  26 F= -.42306971E+03 E0= -.42305412E+03  d E =-.368280E-01  mag=     1.2390
 curvature: -21.46 expect dE=-0.815E+00 dE for cont linesearch -0.718E-02
 ZBRENT: bracketing found
 ZBRENT: interpolating
 opt :   6.0932  next Energy=  -423.073819 (dE=-0.409E-01)
 bond charge predicted
       N       E                     dE             d eps       ncg     rms          rms(c)
DAV:   1    -0.412989118377E+03    0.11813E-01   -0.78887E+00  5488   0.599E+00    0.699E-01
RMM:   2    -0.413004578726E+03   -0.15460E-01   -0.13001E-01  5464   0.759E-01    0.746E-01
RMM:   3    -0.413013759984E+03   -0.91813E-02   -0.66067E-03  5494   0.133E-01    0.110E+00
RMM:   4    -0.412999818967E+03    0.13941E-01   -0.42620E-03  5393   0.113E-01    0.486E-01
RMM:   5    -0.412998597954E+03    0.12210E-02   -0.41116E-03  5336   0.107E-01    0.337E-01
RMM:   6    -0.413000008476E+03   -0.14105E-02   -0.21583E-03  5245   0.723E-02    0.395E-01
RMM:   7    -0.412997243120E+03    0.27654E-02   -0.95154E-04  4993   0.498E-02    0.134E-01
RMM:   8    -0.412997086947E+03    0.15617E-03   -0.31975E-04  3952   0.295E-02    0.793E-02
RMM:   9    -0.412997014036E+03    0.72910E-04   -0.76542E-05  3028   0.171E-02
 A1 parameter for BJ-Damping is not reasonable. Taking default.
  27 F= -.42307225E+03 E0= -.42305724E+03  d E =-.393640E-01  mag=     1.2332
 curvature: -12.27 expect dE=-0.340E+00 dE for cont linesearch -0.393E-03
 trial: gam= 2.46807 g(F)=  0.277E-01 g(S)=  0.000E+00 ort = 0.138E-02 (trialstep = 0.226E+00)
 search vector abs. value=  0.397E+00
 bond charge predicted
       N       E                     dE             d eps       ncg     rms          rms(c)
DAV:   1    -0.413004934058E+03   -0.78471E-02   -0.75751E-01  5512   0.183E+00    0.228E-01
RMM:   2    -0.413006884805E+03   -0.19507E-02   -0.12113E-02  5367   0.231E-01    0.308E-01
RMM:   3    -0.413007108517E+03   -0.22371E-03   -0.76693E-04  4834   0.448E-02    0.320E-01
RMM:   4    -0.413005989048E+03    0.11195E-02   -0.42818E-04  4212   0.350E-02    0.178E-01
RMM:   5    -0.413005776984E+03    0.21206E-03   -0.41959E-04  4238   0.369E-02    0.104E-01
RMM:   6    -0.413005969663E+03   -0.19268E-03   -0.25584E-04  3782   0.276E-02    0.134E-01
RMM:   7    -0.413005743025E+03    0.22664E-03   -0.11068E-04  3149   0.203E-02    0.569E-02
RMM:   8    -0.413005718660E+03    0.24365E-04   -0.44923E-05  2859   0.130E-02
 A1 parameter for BJ-Damping is not reasonable. Taking default.
  28 F= -.42307917E+03 E0= -.42306406E+03  d E =-.692688E-02  mag=     1.2327
 ZBRENT: can't locate minimum, use default step
 trial-energy change:   -0.006927  1 .order   -0.006735   -0.007036   -0.006434
 step:   0.9035(harm=  2.6424)  dis= 0.01877  next Energy=  -423.113399 (dE=-0.412E-01)
 bond charge predicted
       N       E                     dE             d eps       ncg     rms          rms(c)
DAV:   1    -0.413020798723E+03   -0.15056E-01   -0.68229E+00  5488   0.549E+00    0.673E-01
RMM:   2    -0.413036695678E+03   -0.15897E-01   -0.11060E-01  5457   0.695E-01    0.864E-01
RMM:   3    -0.413041131551E+03   -0.44359E-02   -0.65912E-03  5472   0.131E-01    0.960E-01
RMM:   4    -0.413030605993E+03    0.10526E-01   -0.38660E-03  5311   0.102E-01    0.548E-01
RMM:   5    -0.413028612642E+03    0.19934E-02   -0.35110E-03  5331   0.994E-02    0.346E-01
RMM:   6    -0.413030134109E+03   -0.15215E-02   -0.24554E-03  5310   0.780E-02    0.430E-01
RMM:   7    -0.413027410452E+03    0.27237E-02   -0.12772E-03  5088   0.579E-02    0.185E-01
RMM:   8    -0.413026964563E+03    0.44589E-03   -0.52056E-04  4475   0.369E-02    0.112E-01
RMM:   9    -0.413026790452E+03    0.17411E-03   -0.12347E-04  3318   0.197E-02    0.582E-02
RMM:  10    -0.413026717910E+03    0.72541E-04   -0.33120E-05  2863   0.116E-02
 A1 parameter for BJ-Damping is not reasonable. Taking default.
  29 F= -.42309485E+03 E0= -.42307903E+03  d E =-.225996E-01  mag=     1.2325
 curvature:  -8.12 expect dE=-0.246E+00 dE for cont linesearch -0.629E-02
 ZBRENT: increasing intervall
 opt :   2.2588  next Energy=  -423.103786 (dE=-0.315E-01)
 bond charge predicted
       N       E                     dE             d eps       ncg     rms          rms(c)
DAV:   1    -0.413019966109E+03    0.68243E-02   -0.27272E+01  5488   0.110E+01    0.135E+00
RMM:   2    -0.413114513629E+03   -0.94548E-01   -0.45407E-01  5492   0.139E+00    0.227E+00
RMM:   3    -0.413095678768E+03    0.18835E-01   -0.25474E-02  5532   0.262E-01    0.184E+00
RMM:   4    -0.413054451914E+03    0.41227E-01   -0.18500E-02  5483   0.231E-01    0.102E+00
RMM:   5    -0.413048462926E+03    0.59890E-02   -0.14074E-02  5469   0.197E-01    0.714E-01
RMM:   6    -0.413051259337E+03   -0.27964E-02   -0.94739E-03  5488   0.156E-01    0.712E-01
RMM:   7    -0.413046478013E+03    0.47813E-02   -0.44967E-03  5455   0.107E-01    0.464E-01
RMM:   8    -0.413044447519E+03    0.20305E-02   -0.23647E-03  5272   0.768E-02    0.284E-01
RMM:   9    -0.413043602897E+03    0.84462E-03   -0.74622E-04  4672   0.436E-02    0.141E-01
RMM:  10    -0.413043341414E+03    0.26148E-03   -0.19887E-04  3649   0.240E-02    0.841E-02
RMM:  11    -0.413043110092E+03    0.23132E-03   -0.91908E-05  3299   0.163E-02    0.712E-02
RMM:  12    -0.413042703323E+03    0.40677E-03   -0.67732E-05  3125   0.127E-02    0.682E-02
RMM:  13    -0.413042204153E+03    0.49917E-03   -0.44139E-05  2940   0.975E-03    0.683E-02
RMM:  14    -0.413042083381E+03    0.12077E-03   -0.10595E-05  1845   0.534E-03    0.687E-02
RMM:  15    -0.413043048101E+03   -0.96472E-03   -0.69368E-05  2955   0.150E-02    0.736E-02
RMM:  16    -0.413042841177E+03    0.20692E-03   -0.10918E-05  2350   0.768E-03    0.728E-02
RMM:  17    -0.413042330506E+03    0.51067E-03   -0.47951E-05  2866   0.129E-02    0.744E-02
RMM:  18    -0.413041785856E+03    0.54465E-03   -0.80074E-05  3146   0.154E-02    0.711E-02
RMM:  19    -0.413041639884E+03    0.14597E-03   -0.30845E-05  2631   0.919E-03    0.700E-02
RMM:  20    -0.413042003877E+03   -0.36399E-03   -0.16835E-04  3421   0.236E-02    0.596E-02
RMM:  21    -0.413043976736E+03   -0.19729E-02   -0.73364E-04  4498   0.468E-02    0.344E-02
RMM:  22    -0.413044635765E+03   -0.65903E-03   -0.10018E-04  3204   0.187E-02    0.244E-02
RMM:  23    -0.413044659621E+03   -0.23856E-04   -0.16684E-04  3467   0.239E-02
 A1 parameter for BJ-Damping is not reasonable. Taking default.
  30 F= -.42310216E+03 E0= -.42308667E+03  d E =-.299177E-01  mag=     1.4410
 curvature: -11.53 expect dE=-0.512E+00 dE for cont linesearch -0.335E-02
 ZBRENT: bracketing found
 ZBRENT: interpolating
 opt :   1.7442  next Energy=  -423.104927 (dE=-0.327E-01)
 bond charge predicted
       N       E                     dE             d eps       ncg     rms          rms(c)
DAV:   1    -0.413039129228E+03    0.55065E-02   -0.39349E+00  5488   0.417E+00    0.502E-01
RMM:   2    -0.413045739914E+03   -0.66107E-02   -0.61932E-02  5432   0.523E-01    0.493E-01
RMM:   3    -0.413045829661E+03   -0.89747E-04   -0.43410E-03  5387   0.106E-01    0.489E-01
RMM:   4    -0.413047167454E+03   -0.13378E-02   -0.15685E-03  5150   0.632E-02    0.496E-01
RMM:   5    -0.413045169833E+03    0.19976E-02   -0.16171E-03  5135   0.666E-02    0.377E-01
RMM:   6    -0.413044477514E+03    0.69232E-03   -0.13419E-03  5097   0.591E-02    0.295E-01
RMM:   7    -0.413042993883E+03    0.14836E-02   -0.75037E-04  4896   0.447E-02    0.121E-01
RMM:   8    -0.413042711036E+03    0.28285E-03   -0.21865E-04  3711   0.248E-02    0.565E-02
RMM:   9    -0.413042615415E+03    0.95621E-04   -0.54025E-05  3053   0.148E-02
 A1 parameter for BJ-Damping is not reasonable. Taking default.
  31 F= -.42310415E+03 E0= -.42308866E+03  d E =-.319024E-01  mag=     1.4292
 curvature:  -9.51 expect dE=-0.358E+00 dE for cont linesearch -0.210E-03
 trial: gam= 0.37091 g(F)=  0.376E-01 g(S)=  0.000E+00 ort = 0.296E-02 (trialstep = 0.530E+00)
 search vector abs. value=  0.944E-01
 bond charge predicted
       N       E                     dE             d eps       ncg     rms          rms(c)
DAV:   1    -0.413062717381E+03   -0.20006E-01   -0.10099E+00  5528   0.214E+00    0.346E-01
RMM:   2    -0.413065471402E+03   -0.27540E-02   -0.17773E-02  5390   0.282E-01    0.410E-01
RMM:   3    -0.413064563737E+03    0.90767E-03   -0.14689E-03  4992   0.601E-02    0.294E-01
RMM:   4    -0.413066650779E+03   -0.20870E-02   -0.74265E-04  4778   0.427E-02    0.446E-01
RMM:   5    -0.413064669124E+03    0.19817E-02   -0.77604E-04  4982   0.476E-02    0.246E-01
RMM:   6    -0.413064455629E+03    0.21350E-03   -0.71154E-04  4877   0.434E-02    0.209E-01
RMM:   7    -0.413063877887E+03    0.57774E-03   -0.37714E-04  4095   0.327E-02    0.832E-02
RMM:   8    -0.413063801195E+03    0.76693E-04   -0.10451E-04  3133   0.191E-02
 A1 parameter for BJ-Damping is not reasonable. Taking default.
  32 F= -.42312401E+03 E0= -.42310848E+03  d E =-.198642E-01  mag=     1.4208
 ZBRENT: can't locate minimum, use default step
 trial-energy change:   -0.019864  1 .order   -0.019639   -0.020496   -0.018783
 step:   2.1182(harm=  6.3371)  dis= 0.02084  next Energy=  -423.226782 (dE=-0.123E+00)
 bond charge predicted
       N       E                     dE             d eps       ncg     rms          rms(c)
DAV:   1    -0.413108869807E+03   -0.44992E-01   -0.90963E+00  5488   0.642E+00    0.106E+00
RMM:   2    -0.413134568372E+03   -0.25699E-01   -0.16359E-01  5458   0.850E-01    0.125E+00
RMM:   3    -0.413126695143E+03    0.78732E-02   -0.14739E-02  5433   0.188E-01    0.959E-01
RMM:   4    -0.413141157615E+03   -0.14462E-01   -0.67183E-03  5425   0.129E-01    0.133E+00
RMM:   5    -0.413119905371E+03    0.21252E-01   -0.73915E-03  5477   0.144E-01    0.772E-01
RMM:   6    -0.413111417913E+03    0.84875E-02   -0.66812E-03  5494   0.132E-01    0.606E-01
RMM:   7    -0.413102017567E+03    0.94003E-02   -0.41060E-03  5355   0.103E-01    0.312E-01
RMM:   8    -0.413100152764E+03    0.18648E-02   -0.11878E-03  4924   0.545E-02    0.179E-01
RMM:   9    -0.413099490919E+03    0.66185E-03   -0.22821E-04  3659   0.271E-02    0.133E-01
RMM:  10    -0.413099152458E+03    0.33846E-03   -0.10153E-04  3298   0.189E-02    0.122E-01
RMM:  11    -0.413098236083E+03    0.91638E-03   -0.13215E-04  3373   0.217E-02    0.105E-01
RMM:  12    -0.413097763846E+03    0.47224E-03   -0.11343E-04  3343   0.196E-02    0.973E-02
RMM:  13    -0.413097902343E+03   -0.13850E-03   -0.79064E-05  3173   0.164E-02    0.915E-02
RMM:  14    -0.413098706721E+03   -0.80438E-03   -0.11463E-04  3322   0.192E-02    0.896E-02
RMM:  15    -0.413101210805E+03   -0.25041E-02   -0.60238E-04  4371   0.445E-02    0.802E-02
RMM:  16    -0.413103723075E+03   -0.25123E-02   -0.45609E-04  4108   0.366E-02    0.825E-02
RMM:  17    -0.413104995391E+03   -0.12723E-02   -0.15077E-04  3419   0.207E-02    0.737E-02
RMM:  18    -0.413106182533E+03   -0.11871E-02   -0.92037E-05  3241   0.164E-02    0.677E-02
RMM:  19    -0.413110502402E+03   -0.43199E-02   -0.84071E-04  4706   0.512E-02    0.610E-02
RMM:  20    -0.413112397671E+03   -0.18953E-02   -0.21275E-04  3589   0.234E-02    0.462E-02
RMM:  21    -0.413114313798E+03   -0.19161E-02   -0.11617E-04  3331   0.169E-02    0.371E-02
RMM:  22    -0.413116800778E+03   -0.24870E-02   -0.16746E-04  3413   0.159E-02    0.316E-02
RMM:  23    -0.413118516885E+03   -0.17161E-02   -0.13604E-04  3298   0.142E-02    0.268E-02
RMM:  24    -0.413119861149E+03   -0.13443E-02   -0.21165E-04  3512   0.155E-02    0.224E-02
RMM:  25    -0.413119875663E+03   -0.14514E-04   -0.13378E-04  3205   0.121E-02
 A1 parameter for BJ-Damping is not reasonable. Taking default.
  33 F= -.42317613E+03 E0= -.42316010E+03  d E =-.719766E-01  mag=     0.6302
 curvature:  -3.65 expect dE=-0.125E+00 dE for cont linesearch -0.306E-01
 ZBRENT: increasing intervall
 opt :   5.2956  next Energy=  -423.242169 (dE=-0.138E+00)
 bond charge predicted
       N       E                     dE             d eps       ncg     rms          rms(c)
DAV:   1    -0.413137461248E+03   -0.17600E-01   -0.36321E+01  5488   0.128E+01    0.199E+00
RMM:   2    -0.413300545977E+03   -0.16308E+00   -0.64048E-01  5488   0.169E+00    0.291E+00
RMM:   3    -0.413216341954E+03    0.84204E-01   -0.39725E-02  5523   0.320E-01    0.193E+00
RMM:   4    -0.413213452562E+03    0.28894E-02   -0.33510E-02  5490   0.302E-01    0.189E+00
RMM:   5    -0.413192726603E+03    0.20726E-01   -0.28841E-02  5490   0.282E-01    0.141E+00
RMM:   6    -0.413171653469E+03    0.21073E-01   -0.26576E-02  5489   0.263E-01    0.986E-01
RMM:   7    -0.413155912872E+03    0.15741E-01   -0.13675E-02  5496   0.191E-01    0.428E-01
RMM:   8    -0.413156700735E+03   -0.78786E-03   -0.33985E-03  5379   0.955E-02    0.266E-01
RMM:   9    -0.413158811501E+03   -0.21108E-02   -0.95121E-04  4941   0.503E-02    0.135E-01
RMM:  10    -0.413161679611E+03   -0.28681E-02   -0.41558E-04  4051   0.311E-02    0.108E-01
RMM:  11    -0.413165052724E+03   -0.33731E-02   -0.43928E-04  3945   0.291E-02    0.614E-02
RMM:  12    -0.413166710671E+03   -0.16579E-02   -0.27894E-04  3657   0.215E-02    0.463E-02
RMM:  13    -0.413167181419E+03   -0.47075E-03   -0.13239E-04  3434   0.152E-02    0.285E-02
RMM:  14    -0.413167166418E+03    0.15001E-04   -0.77852E-05  3026   0.111E-02
 A1 parameter for BJ-Damping is not reasonable. Taking default.
  34 F= -.42321550E+03 E0= -.42320074E+03  d E =-.111354E+00  mag=     0.6520
 curvature:  -7.88 expect dE=-0.445E+00 dE for cont linesearch -0.299E-02
 trial: gam= 1.25609 g(F)=  0.565E-01 g(S)=  0.000E+00 ort =-0.598E-02 (trialstep = 0.735E+00)
 search vector abs. value=  0.190E+00
 bond charge predicted
       N       E                     dE             d eps       ncg     rms          rms(c)
DAV:   1    -0.413196580730E+03   -0.29399E-01   -0.40506E+00  5520   0.437E+00    0.600E-01
RMM:   2    -0.413244203476E+03   -0.47623E-01   -0.77652E-02  5463   0.578E-01    0.153E+00
RMM:   3    -0.413204743168E+03    0.39460E-01   -0.63482E-03  5422   0.136E-01    0.572E-01
RMM:   4    -0.413204155668E+03    0.58750E-03   -0.35535E-03  5358   0.103E-01    0.558E-01
RMM:   5    -0.413201260714E+03    0.28950E-02   -0.25925E-03  5315   0.861E-02    0.351E-01
RMM:   6    -0.413200626802E+03    0.63391E-03   -0.21115E-03  5307   0.752E-02    0.282E-01
RMM:   7    -0.413199554587E+03    0.10722E-02   -0.10089E-03  4996   0.516E-02    0.106E-01
RMM:   8    -0.413199713847E+03   -0.15926E-03   -0.23744E-04  3722   0.264E-02    0.767E-02
RMM:   9    -0.413199854612E+03   -0.14077E-03   -0.68801E-05  3104   0.173E-02    0.299E-02
RMM:  10    -0.413200118953E+03   -0.26434E-03   -0.19521E-05  2688   0.830E-03    0.297E-02
RMM:  11    -0.413200402908E+03   -0.28396E-03   -0.13787E-05  2428   0.669E-03    0.200E-02
RMM:  12    -0.413200643909E+03   -0.24100E-03   -0.90567E-06  2001   0.565E-03    0.180E-02
RMM:  13    -0.413200845822E+03   -0.20191E-03   -0.54799E-06  1658   0.496E-03    0.132E-02
RMM:  14    -0.413201136593E+03   -0.29077E-03   -0.78739E-06  1848   0.510E-03    0.119E-02
RMM:  15    -0.413201718297E+03   -0.58170E-03   -0.28741E-05  2593   0.718E-03    0.103E-02
RMM:  16    -0.413202106146E+03   -0.38785E-03   -0.27697E-05  2239   0.632E-03    0.762E-03
RMM:  17    -0.413202298491E+03   -0.19235E-03   -0.19285E-05  1961   0.562E-03    0.578E-03
RMM:  18    -0.413202422186E+03   -0.12369E-03   -0.17538E-05  1939   0.532E-03    0.451E-03
RMM:  19    -0.413202466600E+03   -0.44414E-04   -0.23083E-05  1937   0.532E-03
 A1 parameter for BJ-Damping is not reasonable. Taking default.
  35 F= -.42324845E+03 E0= -.42323344E+03  d E =-.329457E-01  mag=     0.7501
 trial-energy change:   -0.032946  1 .order   -0.030191   -0.035988   -0.024394
 step:   1.2003(harm=  2.2825)  dis= 0.01640  next Energy=  -423.256859 (dE=-0.414E-01)
 bond charge predicted
       N       E                     dE             d eps       ncg     rms          rms(c)
DAV:   1    -0.413215664362E+03   -0.13242E-01   -0.16200E+00  5528   0.276E+00    0.380E-01
RMM:   2    -0.413235773808E+03   -0.20109E-01   -0.31408E-02  5410   0.367E-01    0.101E+00
RMM:   3    -0.413218555076E+03    0.17219E-01   -0.26818E-03  5262   0.890E-02    0.358E-01
RMM:   4    -0.413218446857E+03    0.10822E-03   -0.14219E-03  5093   0.660E-02    0.349E-01
RMM:   5    -0.413217384870E+03    0.10620E-02   -0.10281E-03  5100   0.544E-02    0.218E-01
RMM:   6    -0.413217219450E+03    0.16542E-03   -0.83835E-04  4963   0.474E-02    0.181E-01
RMM:   7    -0.413216726285E+03    0.49316E-03   -0.38852E-04  4107   0.325E-02    0.637E-02
RMM:   8    -0.413216714580E+03    0.11705E-04   -0.91115E-05  3126   0.181E-02
 A1 parameter for BJ-Damping is not reasonable. Taking default.
  36 F= -.42326121E+03 E0= -.42324603E+03  d E =-.457037E-01  mag=     0.7634
 curvature:  -2.27 expect dE=-0.974E-01 dE for cont linesearch -0.556E-02
 ZBRENT: increasing intervall
 opt :   2.1303  next Energy=  -423.270543 (dE=-0.550E-01)
 bond charge predicted
       N       E                     dE             d eps       ncg     rms          rms(c)
DAV:   1    -0.413224061139E+03   -0.73349E-02   -0.64797E+00  5488   0.552E+00    0.749E-01
RMM:   2    -0.413294601855E+03   -0.70541E-01   -0.12317E-01  5467   0.731E-01    0.184E+00
RMM:   3    -0.413236243245E+03    0.58359E-01   -0.10177E-02  5489   0.171E-01    0.727E-01
RMM:   4    -0.413234866062E+03    0.13772E-02   -0.54670E-03  5445   0.128E-01    0.680E-01
RMM:   5    -0.413230741842E+03    0.41242E-02   -0.38981E-03  5442   0.106E-01    0.437E-01
RMM:   6    -0.413229803160E+03    0.93868E-03   -0.31978E-03  5438   0.923E-02    0.355E-01
RMM:   7    -0.413227920166E+03    0.18830E-02   -0.15801E-03  5133   0.642E-02    0.134E-01
RMM:   8    -0.413227917468E+03    0.26983E-05   -0.37860E-04  4206   0.331E-02
 A1 parameter for BJ-Damping is not reasonable. Taking default.
  37 F= -.42326943E+03 E0= -.42325392E+03  d E =-.539241E-01  mag=     0.7975
 curvature:  -3.81 expect dE=-0.166E+00 dE for cont linesearch -0.329E-03
 trial: gam= 0.11901 g(F)=  0.435E-01 g(S)=  0.000E+00 ort =-0.406E-02 (trialstep = 0.101E+01)
 search vector abs. value=  0.452E-01
 bond charge predicted
       N       E                     dE             d eps       ncg     rms          rms(c)
DAV:   1    -0.413261980696E+03   -0.34061E-01   -0.21402E+00  5536   0.327E+00    0.519E-01
RMM:   2    -0.413268806013E+03   -0.68253E-02   -0.45534E-02  5437   0.458E-01    0.563E-01
RMM:   3    -0.413268735811E+03    0.70202E-04   -0.24333E-03  5251   0.790E-02    0.554E-01
RMM:   4    -0.413267717663E+03    0.10181E-02   -0.13060E-03  5107   0.619E-02    0.444E-01
RMM:   5    -0.413267285709E+03    0.43195E-03   -0.15878E-03  5222   0.653E-02    0.371E-01
RMM:   6    -0.413267389870E+03   -0.10416E-03   -0.21779E-03  5284   0.752E-02    0.339E-01
RMM:   7    -0.413265653734E+03    0.17361E-02   -0.99250E-04  5026   0.513E-02    0.107E-01
RMM:   8    -0.413265482418E+03    0.17132E-03   -0.16340E-04  3494   0.225E-02    0.570E-02
RMM:   9    -0.413265461486E+03    0.20932E-04   -0.42177E-05  2900   0.138E-02
 A1 parameter for BJ-Damping is not reasonable. Taking default.
  38 F= -.42330715E+03 E0= -.42329172E+03  d E =-.377263E-01  mag=     0.8311
 trial-energy change:   -0.037726  1 .order   -0.037085   -0.043626   -0.030544
 step:   2.4088(harm=  3.3826)  dis= 0.01877  next Energy=  -423.329817 (dE=-0.604E-01)
 bond charge predicted
       N       E                     dE             d eps       ncg     rms          rms(c)
DAV:   1    -0.413289716343E+03   -0.24234E-01   -0.40434E+00  5488   0.450E+00    0.710E-01
RMM:   2    -0.413304103220E+03   -0.14387E-01   -0.85580E-02  5459   0.627E-01    0.822E-01
RMM:   3    -0.413302448555E+03    0.16547E-02   -0.46062E-03  5374   0.109E-01    0.780E-01
RMM:   4    -0.413299520438E+03    0.29281E-02   -0.26022E-03  5274   0.879E-02    0.599E-01
RMM:   5    -0.413298578450E+03    0.94199E-03   -0.29750E-03  5458   0.896E-02    0.487E-01
RMM:   6    -0.413298757772E+03   -0.17932E-03   -0.40143E-03  5457   0.102E-01    0.452E-01
RMM:   7    -0.413295376938E+03    0.33808E-02   -0.17651E-03  5189   0.681E-02    0.127E-01
RMM:   8    -0.413295086876E+03    0.29006E-03   -0.26792E-04  3814   0.284E-02    0.694E-02
RMM:   9    -0.413295029758E+03    0.57118E-04   -0.63204E-05  3099   0.162E-02
 A1 parameter for BJ-Damping is not reasonable. Taking default.
  39 F= -.42333697E+03 E0= -.42332159E+03  d E =-.675429E-01  mag=     0.8592
 curvature:  -1.48 expect dE=-0.188E-01 dE for cont linesearch -0.531E-02
 ZBRENT: increasing intervall
 opt :   5.1979  next Energy=  -423.324089 (dE=-0.547E-01)
 bond charge predicted
       N       E                     dE             d eps       ncg     rms          rms(c)
DAV:   1    -0.413260818379E+03    0.34268E-01   -0.16171E+01  5488   0.899E+00    0.140E+00
RMM:   2    -0.413319089033E+03   -0.58271E-01   -0.34164E-01  5475   0.126E+00    0.162E+00
RMM:   3    -0.413312361891E+03    0.67271E-02   -0.18200E-02  5500   0.218E-01    0.156E+00
RMM:   4    -0.413299231888E+03    0.13130E-01   -0.10314E-02  5491   0.176E-01    0.117E+00
RMM:   5    -0.413296821522E+03    0.24104E-02   -0.11774E-02  5494   0.178E-01    0.987E-01
RMM:   6    -0.413295589761E+03    0.12318E-02   -0.15733E-02  5490   0.203E-01    0.861E-01
RMM:   7    -0.413283035359E+03    0.12554E-01   -0.67685E-03  5480   0.133E-01    0.240E-01
RMM:   8    -0.413281935098E+03    0.11003E-02   -0.10823E-03  5016   0.551E-02    0.111E-01
RMM:   9    -0.413281873373E+03    0.61726E-04   -0.19329E-04  3573   0.242E-02
 A1 parameter for BJ-Damping is not reasonable. Taking default.
  40 F= -.42332430E+03 E0= -.42330935E+03  d E =-.548762E-01  mag=     0.8794
 curvature:   3.58 expect dE= 0.177E+00 dE for cont linesearch  0.351E-01
 ZBRENT: bracketing found
 ZBRENT: interpolating
 opt :   3.4606  next Energy=  -423.343674 (dE=-0.742E-01)
 bond charge predicted
       N       E                     dE             d eps       ncg     rms          rms(c)
DAV:   1    -0.413292192221E+03   -0.10257E-01   -0.62594E+00  5488   0.559E+00    0.880E-01
RMM:   2    -0.413318808682E+03   -0.26616E-01   -0.13396E-01  5461   0.778E-01    0.109E+00
RMM:   3    -0.413311790473E+03    0.70182E-02   -0.74359E-03  5455   0.139E-01    0.962E-01
RMM:   4    -0.413307223696E+03    0.45668E-02   -0.43537E-03  5453   0.115E-01    0.717E-01
RMM:   5    -0.413305705579E+03    0.15181E-02   -0.47402E-03  5485   0.113E-01    0.576E-01
RMM:   6    -0.413307450462E+03   -0.17449E-02   -0.57767E-03  5487   0.122E-01    0.584E-01
RMM:   7    -0.413302051800E+03    0.53987E-02   -0.25957E-03  5341   0.831E-02    0.159E-01
RMM:   8    -0.413301630778E+03    0.42102E-03   -0.47342E-04  4421   0.360E-02    0.820E-02
RMM:   9    -0.413301581532E+03    0.49246E-04   -0.78708E-05  3152   0.171E-02
 A1 parameter for BJ-Damping is not reasonable. Taking default.
  41 F= -.42334371E+03 E0= -.42332855E+03  d E =-.742805E-01  mag=     0.8972
 curvature:  -0.68 expect dE=-0.122E-01 dE for cont linesearch -0.324E-06
 trial: gam= 0.39570 g(F)=  0.179E-01 g(S)=  0.000E+00 ort = 0.146E-03 (trialstep = 0.150E+01)
 search vector abs. value=  0.250E-01
 bond charge predicted
       N       E                     dE             d eps       ncg     rms          rms(c)
DAV:   1    -0.413320681532E+03   -0.19051E-01   -0.22938E+00  5488   0.331E+00    0.403E-01
RMM:   2    -0.413332722266E+03   -0.12041E-01   -0.41327E-02  5426   0.431E-01    0.709E-01
RMM:   3    -0.413325427905E+03    0.72944E-02   -0.24780E-03  5297   0.831E-02    0.428E-01
RMM:   4    -0.413324544691E+03    0.88321E-03   -0.11747E-03  5094   0.619E-02    0.338E-01
RMM:   5    -0.413323821182E+03    0.72351E-03   -0.10346E-03  5105   0.545E-02    0.240E-01
RMM:   6    -0.413323751337E+03    0.69845E-04   -0.11211E-03  5069   0.549E-02    0.208E-01
RMM:   7    -0.413323142589E+03    0.60875E-03   -0.51578E-04  4651   0.373E-02    0.826E-02
RMM:   8    -0.413323025245E+03    0.11734E-03   -0.10800E-04  3190   0.185E-02    0.398E-02
RMM:   9    -0.413323005202E+03    0.20043E-04   -0.27255E-05  2687   0.111E-02
 A1 parameter for BJ-Damping is not reasonable. Taking default.
  42 F= -.42336698E+03 E0= -.42335191E+03  d E =-.232731E-01  mag=     0.9180
 trial-energy change:   -0.023273  1 .order   -0.023196   -0.026926   -0.019466
 step:   5.4268(harm=  5.4268)  dis= 0.01879  next Energy=  -423.392300 (dE=-0.486E-01)
 bond charge predicted
       N       E                     dE             d eps       ncg     rms          rms(c)
DAV:   1    -0.413328762309E+03   -0.57371E-02   -0.15637E+01  5488   0.865E+00    0.105E+00
RMM:   2    -0.413418976077E+03   -0.90214E-01   -0.28294E-01  5488   0.113E+00    0.193E+00
RMM:   3    -0.413361805566E+03    0.57171E-01   -0.17182E-02  5494   0.220E-01    0.113E+00
RMM:   4    -0.413354492574E+03    0.73130E-02   -0.80683E-03  5505   0.162E-01    0.862E-01
RMM:   5    -0.413350596880E+03    0.38957E-02   -0.67749E-03  5491   0.140E-01    0.637E-01
RMM:   6    -0.413349708698E+03    0.88818E-03   -0.74928E-03  5484   0.142E-01    0.525E-01
RMM:   7    -0.413345774839E+03    0.39339E-02   -0.33723E-03  5416   0.948E-02    0.201E-01
RMM:   8    -0.413345163230E+03    0.61161E-03   -0.81434E-04  4900   0.460E-02    0.110E-01
RMM:   9    -0.413344943245E+03    0.21999E-03   -0.17544E-04  3523   0.227E-02    0.684E-02
RMM:  10    -0.413344768433E+03    0.17481E-03   -0.74958E-05  3250   0.162E-02    0.443E-02
RMM:  11    -0.413344502549E+03    0.26588E-03   -0.53331E-05  3126   0.123E-02    0.359E-02
RMM:  12    -0.413344312707E+03    0.18984E-03   -0.27401E-05  2934   0.904E-03    0.246E-02
RMM:  13    -0.413344211706E+03    0.10100E-03   -0.11948E-05  2554   0.654E-03    0.173E-02
RMM:  14    -0.413344213270E+03   -0.15639E-05   -0.32902E-06  1515   0.455E-03
 A1 parameter for BJ-Damping is not reasonable. Taking default.
  43 F= -.42339303E+03 E0= -.42337831E+03  d E =-.493222E-01  mag=     0.9435
 curvature:  -3.80 expect dE=-0.426E-01 dE for cont linesearch -0.460E-04
 trial: gam= 0.61357 g(F)=  0.112E-01 g(S)=  0.000E+00 ort = 0.551E-03 (trialstep = 0.229E+01)
 search vector abs. value=  0.213E-01
 bond charge predicted
       N       E                     dE             d eps       ncg     rms          rms(c)
DAV:   1    -0.413357609332E+03   -0.13398E-01   -0.49591E+00  5488   0.502E+00    0.521E-01
RMM:   2    -0.413374377109E+03   -0.16768E-01   -0.91205E-02  5435   0.646E-01    0.725E-01
RMM:   3    -0.413369944099E+03    0.44330E-02   -0.41751E-03  5365   0.109E-01    0.622E-01
RMM:   4    -0.413366956854E+03    0.29872E-02   -0.21326E-03  5238   0.827E-02    0.446E-01
RMM:   5    -0.413365256401E+03    0.17005E-02   -0.13653E-03  5100   0.609E-02    0.285E-01
RMM:   6    -0.413365436677E+03   -0.18028E-03   -0.17411E-03  5195   0.680E-02    0.250E-01
RMM:   7    -0.413364621595E+03    0.81508E-03   -0.81008E-04  4940   0.467E-02    0.102E-01
RMM:   8    -0.413364449078E+03    0.17252E-03   -0.17683E-04  3543   0.227E-02    0.535E-02
RMM:   9    -0.413364394513E+03    0.54566E-04   -0.48465E-05  2925   0.141E-02
 A1 parameter for BJ-Damping is not reasonable. Taking default.
  44 F= -.42341594E+03 E0= -.42340127E+03  d E =-.229074E-01  mag=     0.9498
 trial-energy change:   -0.022907  1 .order   -0.022363   -0.026475   -0.018250
 step:   5.0045(harm=  7.3658)  dis= 0.01694  next Energy=  -423.427681 (dE=-0.347E-01)
 bond charge predicted
       N       E                     dE             d eps       ncg     rms          rms(c)
DAV:   1    -0.413368469986E+03   -0.40209E-02   -0.69927E+00  5488   0.597E+00    0.630E-01
RMM:   2    -0.413390264620E+03   -0.21795E-01   -0.12974E-01  5437   0.772E-01    0.818E-01
RMM:   3    -0.413386648992E+03    0.36156E-02   -0.61524E-03  5388   0.130E-01    0.766E-01
RMM:   4    -0.413382141699E+03    0.45073E-02   -0.30050E-03  5353   0.968E-02    0.570E-01
RMM:   5    -0.413378984528E+03    0.31572E-02   -0.20497E-03  5278   0.747E-02    0.347E-01
RMM:   6    -0.413379244397E+03   -0.25987E-03   -0.24440E-03  5337   0.808E-02    0.314E-01
RMM:   7    -0.413377980313E+03    0.12641E-02   -0.12729E-03  5071   0.577E-02    0.149E-01
RMM:   8    -0.413377621225E+03    0.35909E-03   -0.32952E-04  4033   0.298E-02    0.682E-02
RMM:   9    -0.413377534977E+03    0.86249E-04   -0.80371E-05  3075   0.168E-02
 A1 parameter for BJ-Damping is not reasonable. Taking default.
  45 F= -.42343231E+03 E0= -.42341767E+03  d E =-.392772E-01  mag=     0.9527
 curvature:  -5.32 expect dE=-0.565E-01 dE for cont linesearch -0.397E-02
 ZBRENT: increasing intervall
 opt :  10.4370  next Energy=  -423.432333 (dE=-0.393E-01)
 bond charge predicted
       N       E                     dE             d eps       ncg     rms          rms(c)
DAV:   1    -0.413336202600E+03    0.41419E-01   -0.27993E+01  5488   0.119E+01    0.127E+00
RMM:   2    -0.413418481099E+03   -0.82278E-01   -0.52219E-01  5472   0.155E+00    0.157E+00
RMM:   3    -0.413408839726E+03    0.96414E-02   -0.25036E-02  5505   0.261E-01    0.152E+00
RMM:   4    -0.413391275546E+03    0.17564E-01   -0.11235E-02  5491   0.185E-01    0.112E+00
RMM:   5    -0.413379304253E+03    0.11971E-01   -0.87781E-03  5493   0.155E-01    0.745E-01
RMM:   6    -0.413378586156E+03    0.71810E-03   -0.10031E-02  5487   0.164E-01    0.632E-01
RMM:   7    -0.413373246150E+03    0.53400E-02   -0.50350E-03  5469   0.114E-01    0.307E-01
RMM:   8    -0.413371868165E+03    0.13780E-02   -0.14175E-03  5062   0.606E-02    0.137E-01
RMM:   9    -0.413371783009E+03    0.85156E-04   -0.35854E-04  3958   0.310E-02
 A1 parameter for BJ-Damping is not reasonable. Taking default.
  46 F= -.42343299E+03 E0= -.42341911E+03  d E =-.399607E-01  mag=     0.9490
 curvature:  -0.04 expect dE=-0.171E-02 dE for cont linesearch -0.255E-04
 ZBRENT: bracketing found
 ZBRENT: interpolating
 opt :   7.7437  next Energy=  -423.438274 (dE=-0.452E-01)
 bond charge predicted
       N       E                     dE             d eps       ncg     rms          rms(c)
DAV:   1    -0.413371602448E+03    0.26572E-03   -0.68703E+00  5488   0.593E+00    0.629E-01
RMM:   2    -0.413393837017E+03   -0.22235E-01   -0.13044E-01  5450   0.767E-01    0.841E-01
RMM:   3    -0.413388964966E+03    0.48721E-02   -0.63870E-03  5374   0.133E-01    0.751E-01
RMM:   4    -0.413384662787E+03    0.43022E-02   -0.29814E-03  5339   0.960E-02    0.569E-01
RMM:   5    -0.413381350647E+03    0.33121E-02   -0.20269E-03  5273   0.740E-02    0.345E-01
RMM:   6    -0.413381699121E+03   -0.34847E-03   -0.22086E-03  5326   0.771E-02    0.312E-01
RMM:   7    -0.413381001513E+03    0.69761E-03   -0.14346E-03  5092   0.612E-02    0.214E-01
RMM:   8    -0.413380263555E+03    0.73796E-03   -0.51011E-04  4544   0.363E-02    0.747E-02
RMM:   9    -0.413380164702E+03    0.98852E-04   -0.96935E-05  3148   0.178E-02
 A1 parameter for BJ-Damping is not reasonable. Taking default.
  47 F= -.42343819E+03 E0= -.42342394E+03  d E =-.451557E-01  mag=     0.9488
 curvature:  -7.32 expect dE=-0.184E+00 dE for cont linesearch -0.152E-04
 trial: gam= 2.26142 g(F)=  0.252E-01 g(S)=  0.000E+00 ort = 0.211E-03 (trialstep = 0.533E+00)
 search vector abs. value=  0.135E+00
 bond charge predicted
       N       E                     dE             d eps       ncg     rms          rms(c)
DAV:   1    -0.413391016449E+03   -0.10753E-01   -0.15326E+00  5504   0.271E+00    0.317E-01
RMM:   2    -0.413394142009E+03   -0.31256E-02   -0.26951E-02  5424   0.350E-01    0.330E-01
RMM:   3    -0.413393655747E+03    0.48626E-03   -0.15499E-03  5199   0.662E-02    0.284E-01
RMM:   4    -0.413393493701E+03    0.16205E-03   -0.75939E-04  4847   0.461E-02    0.232E-01
RMM:   5    -0.413393720044E+03   -0.22634E-03   -0.49053E-04  4597   0.367E-02    0.270E-01
RMM:   6    -0.413392855023E+03    0.86502E-03   -0.48858E-04  4595   0.374E-02    0.150E-01
RMM:   7    -0.413392606941E+03    0.24808E-03   -0.26954E-04  3786   0.293E-02    0.758E-02
RMM:   8    -0.413392537398E+03    0.69544E-04   -0.82993E-05  3021   0.174E-02
 A1 parameter for BJ-Damping is not reasonable. Taking default.
  48 F= -.42345253E+03 E0= -.42343883E+03  d E =-.143493E-01  mag=     0.9412
 ZBRENT: can't locate minimum, use default step
 trial-energy change:   -0.014349  1 .order   -0.014283   -0.013671   -0.014895
 step:   2.1327(harm=  2.1327)  dis= 0.02493  next Energy=  -423.502658 (dE=-0.645E-01)
 bond charge predicted
       N       E                     dE             d eps       ncg     rms          rms(c)
DAV:   1    -0.413414444593E+03   -0.21838E-01   -0.13786E+01  5488   0.813E+00    0.909E-01
RMM:   2    -0.413455035543E+03   -0.40591E-01   -0.24033E-01  5474   0.105E+00    0.123E+00
RMM:   3    -0.413448892692E+03    0.61429E-02   -0.12228E-02  5509   0.185E-01    0.108E+00
RMM:   4    -0.413434351396E+03    0.14541E-01   -0.80178E-03  5481   0.157E-01    0.616E-01
RMM:   5    -0.413433578923E+03    0.77247E-03   -0.53771E-03  5487   0.122E-01    0.532E-01
RMM:   6    -0.413432682725E+03    0.89620E-03   -0.42857E-03  5487   0.105E-01    0.452E-01
RMM:   7    -0.413429862857E+03    0.28199E-02   -0.22430E-03  5237   0.751E-02    0.206E-01
RMM:   8    -0.413429332934E+03    0.52992E-03   -0.61795E-04  4797   0.418E-02    0.117E-01
RMM:   9    -0.413429124220E+03    0.20871E-03   -0.15733E-04  3510   0.225E-02    0.520E-02
RMM:  10    -0.413429065905E+03    0.58316E-04   -0.45698E-05  3052   0.133E-02
 A1 parameter for BJ-Damping is not reasonable. Taking default.
  49 F= -.42349499E+03 E0= -.42348197E+03  d E =-.568065E-01  mag=     0.9055
 curvature:  -8.70 expect dE=-0.326E+00 dE for cont linesearch -0.342E-01
 ZBRENT: increasing intervall
 opt :   5.3318  next Energy=  -423.553181 (dE=-0.115E+00)
 bond charge predicted
       N       E                     dE             d eps       ncg     rms          rms(c)
DAV:   1    -0.413391717976E+03    0.37406E-01   -0.55019E+01  5488   0.163E+01    0.183E+00
RMM:   2    -0.413655628461E+03   -0.26391E+00   -0.98168E-01  5488   0.210E+00    0.318E+00
RMM:   3    -0.413506944074E+03    0.14868E+00   -0.55645E-02  5510   0.398E-01    0.195E+00
RMM:   4    -0.413467594816E+03    0.39349E-01   -0.33588E-02  5493   0.323E-01    0.127E+00
RMM:   5    -0.413460310548E+03    0.72843E-02   -0.22323E-02  5489   0.253E-01    0.995E-01
RMM:   6    -0.413459743882E+03    0.56667E-03   -0.16991E-02  5493   0.209E-01    0.924E-01
RMM:   7    -0.413448598534E+03    0.11145E-01   -0.87294E-03  5473   0.147E-01    0.426E-01
RMM:   8    -0.413447549832E+03    0.10487E-02   -0.30736E-03  5357   0.924E-02    0.258E-01
RMM:   9    -0.413447692851E+03   -0.14302E-03   -0.94867E-04  4988   0.501E-02    0.128E-01
RMM:  10    -0.413447951879E+03   -0.25903E-03   -0.28769E-04  3773   0.255E-02    0.770E-02
RMM:  11    -0.413447771869E+03    0.18001E-03   -0.21919E-04  3600   0.208E-02    0.605E-02
RMM:  12    -0.413447225185E+03    0.54668E-03   -0.12292E-04  3435   0.166E-02    0.380E-02
RMM:  13    -0.413446581527E+03    0.64366E-03   -0.66089E-05  3221   0.123E-02    0.282E-02
RMM:  14    -0.413446384445E+03    0.19708E-03   -0.23697E-05  2742   0.777E-03    0.252E-02
RMM:  15    -0.413446330974E+03    0.53471E-04   -0.16290E-05  2459   0.657E-03
 A1 parameter for BJ-Damping is not reasonable. Taking default.
  50 F= -.42352411E+03 E0= -.42351183E+03  d E =-.859213E-01  mag=     0.8381
 curvature: -14.80 expect dE=-0.517E+00 dE for cont linesearch -0.428E-02
 trial: gam= 0.73502 g(F)=  0.349E-01 g(S)=  0.000E+00 ort =-0.625E-02 (trialstep = 0.149E+01)
 search vector abs. value=  0.988E-01
 bond charge predicted
       N       E                     dE             d eps       ncg     rms          rms(c)
DAV:   1    -0.413471448350E+03   -0.25064E-01   -0.77411E+00  5488   0.579E+00    0.815E-01
RMM:   2    -0.413522400994E+03   -0.50953E-01   -0.12976E-01  5476   0.769E-01    0.162E+00
RMM:   3    -0.413489320086E+03    0.33081E-01   -0.10767E-02  5499   0.171E-01    0.956E-01
RMM:   4    -0.413478223319E+03    0.11097E-01   -0.65561E-03  5453   0.142E-01    0.544E-01
RMM:   5    -0.413477904232E+03    0.31909E-03   -0.55590E-03  5455   0.131E-01    0.414E-01
RMM:   6    -0.413478487699E+03   -0.58347E-03   -0.39492E-03  5421   0.993E-02    0.402E-01
RMM:   7    -0.413476162017E+03    0.23257E-02   -0.15123E-03  5131   0.617E-02    0.176E-01
RMM:   8    -0.413475546062E+03    0.61596E-03   -0.52188E-04  4635   0.379E-02    0.800E-02
RMM:   9    -0.413475380413E+03    0.16565E-03   -0.98668E-05  3247   0.184E-02    0.512E-02
RMM:  10    -0.413475288361E+03    0.92052E-04   -0.32352E-05  2889   0.115E-02
 A1 parameter for BJ-Damping is not reasonable. Taking default.
  51 F= -.42355728E+03 E0= -.42354545E+03  d E =-.331696E-01  mag=     0.8301
 trial-energy change:   -0.033170  1 .order   -0.031021   -0.045294   -0.016747
 step:   2.0350(harm=  2.3688)  dis= 0.02594  next Energy=  -423.560420 (dE=-0.363E-01)
 bond charge predicted
       N       E                     dE             d eps       ncg     rms          rms(c)
DAV:   1    -0.413477377863E+03   -0.19974E-02   -0.10227E+00  5608   0.210E+00    0.299E-01
RMM:   2    -0.413484771707E+03   -0.73938E-02   -0.17743E-02  5420   0.282E-01    0.619E-01
RMM:   3    -0.413479719140E+03    0.50526E-02   -0.14936E-03  5180   0.644E-02    0.356E-01
RMM:   4    -0.413478178020E+03    0.15411E-02   -0.89163E-04  4933   0.530E-02    0.197E-01
RMM:   5    -0.413478200404E+03   -0.22384E-04   -0.72781E-04  4951   0.475E-02
 A1 parameter for BJ-Damping is not reasonable. Taking default.
  52 F= -.42356172E+03 E0= -.42354994E+03  d E =-.376134E-01  mag=     0.8286
 curvature:  -3.30 expect dE=-0.736E-01 dE for cont linesearch -0.528E-03
 trial: gam= 0.01180 g(F)=  0.223E-01 g(S)=  0.000E+00 ort = 0.398E-02 (trialstep = 0.160E+01)
 search vector abs. value=  0.224E-01
 bond charge predicted
       N       E                     dE             d eps       ncg     rms          rms(c)
DAV:   1    -0.413505890444E+03   -0.27712E-01   -0.25787E+00  5512   0.371E+00    0.486E-01
RMM:   2    -0.413514925798E+03   -0.90354E-02   -0.53965E-02  5487   0.515E-01    0.601E-01
RMM:   3    -0.413512507357E+03    0.24184E-02   -0.34162E-03  5505   0.974E-02    0.476E-01
RMM:   4    -0.413514266616E+03   -0.17593E-02   -0.14496E-03  5064   0.604E-02    0.522E-01
RMM:   5    -0.413510282538E+03    0.39841E-02   -0.11083E-03  5094   0.583E-02    0.237E-01
RMM:   6    -0.413510642350E+03   -0.35981E-03   -0.14514E-03  5168   0.637E-02    0.231E-01
RMM:   7    -0.413509969138E+03    0.67321E-03   -0.58209E-04  4599   0.395E-02    0.113E-01
RMM:   8    -0.413509796048E+03    0.17309E-03   -0.12126E-04  3312   0.190E-02    0.431E-02
RMM:   9    -0.413509770618E+03    0.25431E-04   -0.24998E-05  2776   0.109E-02
 A1 parameter for BJ-Damping is not reasonable. Taking default.
  53 F= -.42359323E+03 E0= -.42358163E+03  d E =-.315076E-01  mag=     0.8284
 trial-energy change:   -0.031508  1 .order   -0.031342   -0.035838   -0.026846
 step:   6.3822(harm=  6.3822)  dis= 0.01190  next Energy=  -423.633138 (dE=-0.714E-01)
 bond charge predicted
       N       E                     dE             d eps       ncg     rms          rms(c)
DAV:   1    -0.413517408722E+03   -0.76127E-02   -0.23024E+01  5488   0.111E+01    0.140E+00
RMM:   2    -0.413564684645E+03   -0.47276E-01   -0.46529E-01  5454   0.150E+00    0.116E+00
RMM:   3    -0.413607193789E+03   -0.42509E-01   -0.20983E-02  5494   0.246E-01    0.175E+00
RMM:   4    -0.413566762509E+03    0.40431E-01   -0.11549E-02  5488   0.182E-01    0.102E+00
RMM:   5    -0.413559784153E+03    0.69784E-02   -0.12020E-02  5490   0.185E-01    0.754E-01
RMM:   6    -0.413559561384E+03    0.22277E-03   -0.98474E-03  5491   0.156E-01    0.744E-01
RMM:   7    -0.413549665242E+03    0.98961E-02   -0.43974E-03  5447   0.108E-01    0.200E-01
RMM:   8    -0.413549158577E+03    0.50667E-03   -0.65551E-04  4867   0.433E-02    0.964E-02
RMM:   9    -0.413549449205E+03   -0.29063E-03   -0.17118E-04  3513   0.232E-02    0.667E-02
RMM:  10    -0.413549918180E+03   -0.46897E-03   -0.10244E-04  3341   0.183E-02    0.386E-02
RMM:  11    -0.413550365724E+03   -0.44754E-03   -0.12843E-04  3425   0.158E-02    0.313E-02
RMM:  12    -0.413550408545E+03   -0.42820E-04   -0.52589E-05  3077   0.103E-02
 A1 parameter for BJ-Damping is not reasonable. Taking default.
  54 F= -.42363364E+03 E0= -.42362221E+03  d E =-.719220E-01  mag=     0.8432
 curvature:  -3.20 expect dE=-0.385E-01 dE for cont linesearch -0.141E-05
 trial: gam= 0.54547 g(F)=  0.120E-01 g(S)=  0.000E+00 ort =-0.993E-04 (trialstep = 0.256E+01)
 search vector abs. value=  0.186E-01
 bond charge predicted
       N       E                     dE             d eps       ncg     rms          rms(c)
DAV:   1    -0.413564253257E+03   -0.13888E-01   -0.49248E+00  5504   0.499E+00    0.640E-01
RMM:   2    -0.413586897569E+03   -0.22644E-01   -0.94155E-02  5440   0.675E-01    0.962E-01
RMM:   3    -0.413577755851E+03    0.91417E-02   -0.51865E-03  5415   0.122E-01    0.778E-01
RMM:   4    -0.413571130131E+03    0.66257E-02   -0.30294E-03  5324   0.966E-02    0.427E-01
RMM:   5    -0.413570666079E+03    0.46405E-03   -0.25730E-03  5373   0.886E-02    0.328E-01
RMM:   6    -0.413571511533E+03   -0.84545E-03   -0.24392E-03  5335   0.778E-02    0.381E-01
RMM:   7    -0.413569401611E+03    0.21099E-02   -0.11773E-03  5045   0.562E-02    0.151E-01
RMM:   8    -0.413569055740E+03    0.34587E-03   -0.31021E-04  3931   0.295E-02    0.635E-02
RMM:   9    -0.413569052028E+03    0.37124E-05   -0.62002E-05  3076   0.156E-02
 A1 parameter for BJ-Damping is not reasonable. Taking default.
  55 F= -.42365353E+03 E0= -.42364183E+03  d E =-.198909E-01  mag=     0.8490
 trial-energy change:   -0.019891  1 .order   -0.019761   -0.030666   -0.008857
 step:   3.5961(harm=  3.5961)  dis= 0.01191  next Energy=  -423.655202 (dE=-0.216E-01)
 bond charge predicted
       N       E                     dE             d eps       ncg     rms          rms(c)
DAV:   1    -0.413569628550E+03   -0.57281E-03   -0.81288E-01  5536   0.203E+00    0.264E-01
RMM:   2    -0.413574001152E+03   -0.43726E-02   -0.15765E-02  5374   0.276E-01    0.428E-01
RMM:   3    -0.413571979005E+03    0.20221E-02   -0.91374E-04  5060   0.519E-02    0.321E-01
RMM:   4    -0.413570859847E+03    0.11192E-02   -0.55059E-04  4687   0.420E-02    0.175E-01
RMM:   5    -0.413570833073E+03    0.26774E-04   -0.41184E-04  4430   0.363E-02
 A1 parameter for BJ-Damping is not reasonable. Taking default.
  56 F= -.42365582E+03 E0= -.42364396E+03  d E =-.221776E-01  mag=     0.8499
 curvature:  -2.79 expect dE=-0.103E-01 dE for cont linesearch -0.109E-04
 trial: gam= 0.28638 g(F)=  0.370E-02 g(S)=  0.000E+00 ort = 0.270E-03 (trialstep = 0.277E+01)
 search vector abs. value=  0.538E-02
 bond charge predicted
       N       E                     dE             d eps       ncg     rms          rms(c)
DAV:   1    -0.413576152375E+03   -0.52925E-02   -0.16528E+00  5512   0.288E+00    0.375E-01
RMM:   2    -0.413585053708E+03   -0.89013E-02   -0.32937E-02  5468   0.400E-01    0.632E-01
RMM:   3    -0.413578944835E+03    0.61089E-02   -0.25444E-03  5400   0.843E-02    0.334E-01
RMM:   4    -0.413580215200E+03   -0.12704E-02   -0.75175E-04  4951   0.474E-02    0.394E-01
RMM:   5    -0.413578053648E+03    0.21616E-02   -0.71882E-04  5011   0.485E-02    0.166E-01
RMM:   6    -0.413577983935E+03    0.69713E-04   -0.52281E-04  4675   0.410E-02
 A1 parameter for BJ-Damping is not reasonable. Taking default.
  57 F= -.42366282E+03 E0= -.42365102E+03  d E =-.699849E-02  mag=     0.8494
 trial-energy change:   -0.006998  1 .order   -0.007008   -0.010435   -0.003581
 step:   4.2100(harm=  4.2100)  dis= 0.00782  next Energy=  -423.663763 (dE=-0.794E-02)
 bond charge predicted
       N       E                     dE             d eps       ncg     rms          rms(c)
DAV:   1    -0.413578412587E+03   -0.35894E-03   -0.45093E-01  5528   0.150E+00    0.206E-01
RMM:   2    -0.413579869519E+03   -0.14569E-02   -0.88780E-03  5395   0.207E-01    0.258E-01
RMM:   3    -0.413579472319E+03    0.39720E-03   -0.67025E-04  4750   0.431E-02    0.204E-01
RMM:   4    -0.413579310480E+03    0.16184E-03   -0.19190E-04  3602   0.248E-02    0.177E-01
RMM:   5    -0.413578954810E+03    0.35567E-03   -0.22963E-04  3624   0.313E-02    0.764E-02
RMM:   6    -0.413579119400E+03   -0.16459E-03   -0.17303E-04  3561   0.241E-02    0.109E-01
RMM:   7    -0.413578903577E+03    0.21582E-03   -0.80436E-05  3082   0.177E-02    0.357E-02
RMM:   8    -0.413578890811E+03    0.12766E-04   -0.20682E-05  2605   0.919E-03
 A1 parameter for BJ-Damping is not reasonable. Taking default.
  58 F= -.42366365E+03 E0= -.42365184E+03  d E =-.782655E-02  mag=     0.8468
 curvature:  -3.00 expect dE=-0.404E-02 dE for cont linesearch -0.150E-05
 trial: gam= 0.35449 g(F)=  0.135E-02 g(S)=  0.000E+00 ort = 0.518E-04 (trialstep = 0.305E+01)
 search vector abs. value=  0.206E-02
 bond charge predicted
       N       E                     dE             d eps       ncg     rms          rms(c)
DAV:   1    -0.413579533338E+03   -0.62976E-03   -0.94543E-01  5496   0.229E+00    0.291E-01
RMM:   2    -0.413581968868E+03   -0.24355E-02   -0.19324E-02  5376   0.306E-01    0.281E-01
RMM:   3    -0.413583287126E+03   -0.13183E-02   -0.87450E-04  5048   0.484E-02    0.403E-01
RMM:   4    -0.413581333918E+03    0.19532E-02   -0.46440E-04  4544   0.399E-02    0.183E-01
RMM:   5    -0.413581619123E+03   -0.28521E-03   -0.65095E-04  4864   0.431E-02    0.196E-01
RMM:   6    -0.413581519482E+03    0.99641E-04   -0.49137E-04  4498   0.348E-02
 A1 parameter for BJ-Damping is not reasonable. Taking default.
  59 F= -.42366691E+03 E0= -.42365509E+03  d E =-.326100E-02  mag=     0.8430
 trial-energy change:   -0.003261  1 .order   -0.002746   -0.004165   -0.001327
 step:   3.6722(harm=  4.4818)  dis= 0.00271  next Energy=  -423.667046 (dE=-0.340E-02)
 bond charge predicted
       N       E                     dE             d eps       ncg     rms          rms(c)
DAV:   1    -0.413581059895E+03    0.55923E-03   -0.38543E-02  5784   0.469E-01    0.740E-02
RMM:   2    -0.413581557792E+03   -0.49790E-03   -0.11705E-03  5240   0.776E-02    0.157E-01
RMM:   3    -0.413581244846E+03    0.31295E-03   -0.10778E-04  3172   0.183E-02    0.980E-02
RMM:   4    -0.413581110435E+03    0.13441E-03   -0.43881E-05  2950   0.133E-02    0.459E-02
RMM:   5    -0.413581117801E+03   -0.73661E-05   -0.23299E-05  2759   0.100E-02
 A1 parameter for BJ-Damping is not reasonable. Taking default.
  60 F= -.42366663E+03 E0= -.42365486E+03  d E =-.298735E-02  mag=     0.8404
 curvature:  -2.29 expect dE=-0.161E-02 dE for cont linesearch -0.892E-04
 ZBRENT: increasing intervall
 opt :   4.9082  next Energy=  -423.666796 (dE=-0.315E-02)
 bond charge predicted
       N       E                     dE             d eps       ncg     rms          rms(c)
DAV:   1    -0.413580708303E+03    0.40213E-03   -0.15408E-01  5520   0.923E-01    0.132E-01
RMM:   2    -0.413581434687E+03   -0.72638E-03   -0.31922E-03  5300   0.125E-01    0.178E-01
RMM:   3    -0.413581198496E+03    0.23619E-03   -0.16259E-04  3425   0.228E-02    0.149E-01
RMM:   4    -0.413581119010E+03    0.79486E-04   -0.12439E-04  3271   0.209E-02
 A1 parameter for BJ-Damping is not reasonable. Taking default.
  61 F= -.42366689E+03 E0= -.42365521E+03  d E =-.324458E-02  mag=     0.8381
 curvature:  -4.18 expect dE=-0.477E-02 dE for cont linesearch -0.199E-04
 trial: gam= 0.93373 g(F)=  0.114E-02 g(S)=  0.000E+00 ort =-0.989E-04 (trialstep = 0.256E+01)
 search vector abs. value=  0.275E-02
 bond charge predicted
       N       E                     dE             d eps       ncg     rms          rms(c)
DAV:   1    -0.413581353522E+03   -0.15503E-03   -0.81482E-01  5496   0.208E+00    0.198E-01
RMM:   2    -0.413584844317E+03   -0.34908E-02   -0.15867E-02  5415   0.274E-01    0.349E-01
RMM:   3    -0.413583282481E+03    0.15618E-02   -0.83980E-04  4963   0.483E-02    0.233E-01
RMM:   4    -0.413582845564E+03    0.43692E-03   -0.35580E-04  4125   0.344E-02    0.172E-01
RMM:   5    -0.413582504216E+03    0.34135E-03   -0.19707E-04  3493   0.271E-02    0.886E-02
RMM:   6    -0.413582494383E+03    0.98325E-05   -0.19053E-04  3490   0.259E-02
 A1 parameter for BJ-Damping is not reasonable. Taking default.
  62 F= -.42366884E+03 E0= -.42365722E+03  d E =-.194705E-02  mag=     0.8336
 trial-energy change:   -0.001947  1 .order   -0.002049   -0.002690   -0.001409
 step:   5.3775(harm=  5.3775)  dis= 0.00502  next Energy=  -423.669715 (dE=-0.282E-02)
 bond charge predicted
       N       E                     dE             d eps       ncg     rms          rms(c)
DAV:   1    -0.413581190057E+03    0.13142E-02   -0.98206E-01  5496   0.228E+00    0.208E-01
RMM:   2    -0.413583166084E+03   -0.19760E-02   -0.18206E-02  5390   0.291E-01    0.200E-01
RMM:   3    -0.413583230844E+03   -0.64760E-04   -0.82526E-04  5039   0.496E-02
 A1 parameter for BJ-Damping is not reasonable. Taking default.
  63 F= -.42367020E+03 E0= -.42365852E+03  d E =-.331318E-02  mag=     0.8315
 curvature:  -7.04 expect dE=-0.506E-02 dE for cont linesearch -0.198E-04
 trial: gam= 0.42901 g(F)=  0.718E-03 g(S)=  0.000E+00 ort = 0.880E-04 (trialstep = 0.312E+01)
 search vector abs. value=  0.130E-02
 bond charge predicted
       N       E                     dE             d eps       ncg     rms          rms(c)
DAV:   1    -0.413582092837E+03    0.10732E-02   -0.53361E-01  5496   0.165E+00    0.269E-01
RMM:   2    -0.413599140395E+03   -0.17048E-01   -0.13444E-02  5461   0.249E-01    0.902E-01
RMM:   3    -0.413583155764E+03    0.15985E-01   -0.17723E-03  5240   0.752E-02    0.261E-01
RMM:   4    -0.413582732794E+03    0.42297E-03   -0.69956E-04  4915   0.525E-02    0.185E-01
RMM:   5    -0.413582726126E+03    0.66682E-05   -0.45454E-04  4520   0.370E-02
 A1 parameter for BJ-Damping is not reasonable. Taking default.
  64 F= -.42367095E+03 E0= -.42365942E+03  d E =-.745505E-03  mag=     0.8266
 trial-energy change:   -0.000746  1 .order   -0.001282   -0.002361   -0.000203
 step:   3.4183(harm=  3.4183)  dis= 0.00306  next Energy=  -423.671496 (dE=-0.129E-02)
 bond charge predicted
       N       E                     dE             d eps       ncg     rms          rms(c)
DAV:   1    -0.413582542439E+03    0.19035E-03   -0.52800E-03  5896   0.190E-01    0.120E-01
RMM:   2    -0.413586026362E+03   -0.34839E-02   -0.22395E-03  5355   0.822E-02    0.420E-01
RMM:   3    -0.413582608675E+03    0.34177E-02   -0.84069E-04  4877   0.450E-02    0.130E-01
RMM:   4    -0.413582334203E+03    0.27447E-03   -0.78450E-05  2967   0.171E-02    0.562E-02
RMM:   5    -0.413582299707E+03    0.34496E-04   -0.38961E-05  2775   0.122E-02
 A1 parameter for BJ-Damping is not reasonable. Taking default.
  65 F= -.42367064E+03 E0= -.42365908E+03  d E =-.436731E-03  mag=     0.8239
 curvature:  -2.94 expect dE=-0.111E-02 dE for cont linesearch -0.868E-07
 trial: gam= 0.47980 g(F)=  0.377E-03 g(S)=  0.000E+00 ort = 0.620E-05 (trialstep = 0.318E+01)
 search vector abs. value=  0.682E-03
 bond charge predicted
       N       E                     dE             d eps       ncg     rms          rms(c)
DAV:   1    -0.413581255864E+03    0.10783E-02   -0.28770E-01  5492   0.118E+00    0.136E-01
RMM:   2    -0.413583015979E+03   -0.17601E-02   -0.55630E-03  5306   0.159E-01    0.289E-01
RMM:   3    -0.413581746725E+03    0.12693E-02   -0.23946E-04  3706   0.302E-02    0.124E-01
RMM:   4    -0.413581653940E+03    0.92785E-04   -0.15341E-04  3316   0.251E-02
 A1 parameter for BJ-Damping is not reasonable. Taking default.
  66 F= -.42367137E+03 E0= -.42365972E+03  d E =-.729478E-03  mag=     0.8220
 trial-energy change:   -0.000729  1 .order   -0.000729   -0.001209   -0.000250
 step:   4.0123(harm=  4.0123)  dis= 0.00215  next Energy=  -423.671403 (dE=-0.762E-03)
 bond charge predicted
       N       E                     dE             d eps       ncg     rms          rms(c)
DAV:   1    -0.413581296211E+03    0.45051E-03   -0.19479E-02  5656   0.314E-01    0.967E-02
RMM:   2    -0.413582686455E+03   -0.13902E-02   -0.11798E-03  5298   0.669E-02    0.263E-01
RMM:   3    -0.413581256763E+03    0.14297E-02   -0.36742E-04  4107   0.304E-02    0.694E-02
RMM:   4    -0.413581276766E+03   -0.20003E-04   -0.52994E-05  2953   0.140E-02
 A1 parameter for BJ-Damping is not reasonable. Taking default.
  67 F= -.42367135E+03 E0= -.42365970E+03  d E =-.710590E-03  mag=     0.8206
 curvature:  -3.60 expect dE=-0.127E-02 dE for cont linesearch -0.153E-04
 trial: gam= 1.01654 g(F)=  0.351E-03 g(S)=  0.000E+00 ort =-0.538E-04 (trialstep = 0.241E+01)
 search vector abs. value=  0.947E-03
 bond charge predicted
       N       E                     dE             d eps       ncg     rms          rms(c)
DAV:   1    -0.413580339227E+03    0.91754E-03   -0.24831E-01  5488   0.114E+00    0.141E-01
RMM:   2    -0.413581592529E+03   -0.12533E-02   -0.49575E-03  5332   0.151E-01    0.233E-01
RMM:   3    -0.413581032307E+03    0.56022E-03   -0.25249E-04  3708   0.293E-02    0.161E-01
RMM:   4    -0.413580781421E+03    0.25089E-03   -0.17199E-04  3473   0.247E-02    0.106E-01
RMM:   5    -0.413580691573E+03    0.89848E-04   -0.10442E-04  3001   0.214E-02
 A1 parameter for BJ-Damping is not reasonable. Taking default.
  68 F= -.42367180E+03 E0= -.42366023E+03  d E =-.449977E-03  mag=     0.8182
 trial-energy change:   -0.000450  1 .order   -0.000540   -0.000715   -0.000365
 step:   4.9283(harm=  4.9283)  dis= 0.00271  next Energy=  -423.672082 (dE=-0.731E-03)
 bond charge predicted
       N       E                     dE             d eps       ncg     rms          rms(c)
DAV:   1    -0.413579362052E+03    0.14194E-02   -0.26752E-01  5496   0.118E+00    0.151E-01
RMM:   2    -0.413581385038E+03   -0.20230E-02   -0.57371E-03  5393   0.161E-01    0.308E-01
RMM:   3    -0.413579752980E+03    0.16321E-02   -0.48692E-04  4473   0.382E-02    0.101E-01
RMM:   4    -0.413580066796E+03   -0.31382E-03   -0.10207E-04  3040   0.198E-02    0.150E-01
RMM:   5    -0.413579743035E+03    0.32376E-03   -0.67680E-05  2990   0.167E-02    0.679E-02
RMM:   6    -0.413579755900E+03   -0.12865E-04   -0.83683E-05  3062   0.183E-02
 A1 parameter for BJ-Damping is not reasonable. Taking default.
  69 F= -.42367194E+03 E0= -.42366043E+03  d E =-.593454E-03  mag=     0.8158
 curvature:  -7.87 expect dE=-0.179E-02 dE for cont linesearch -0.142E-04
 trial: gam= 0.43316 g(F)=  0.228E-03 g(S)=  0.000E+00 ort =-0.413E-04 (trialstep = 0.292E+01)
 search vector abs. value=  0.370E-03
 bond charge predicted
       N       E                     dE             d eps       ncg     rms          rms(c)
DAV:   1    -0.413579085892E+03    0.65714E-03   -0.15183E-01  5496   0.889E-01    0.878E-02
RMM:   2    -0.413579404519E+03   -0.31863E-03   -0.29079E-03  5172   0.115E-01    0.838E-02
RMM:   3    -0.413579439455E+03   -0.34936E-04   -0.12360E-04  3304   0.205E-02
 A1 parameter for BJ-Damping is not reasonable. Taking default.
  70 F= -.42367246E+03 E0= -.42366092E+03  d E =-.513628E-03  mag=     0.8153
 trial-energy change:   -0.000514  1 .order   -0.000480   -0.000612   -0.000349
 step:   6.7819(harm=  6.7819)  dis= 0.00225  next Energy=  -423.672657 (dE=-0.712E-03)
 bond charge predicted
       N       E                     dE             d eps       ncg     rms          rms(c)
DAV:   1    -0.413578144091E+03    0.12604E-02   -0.26635E-01  5488   0.118E+00    0.158E-01
RMM:   2    -0.413585424111E+03   -0.72800E-02   -0.61213E-03  5400   0.163E-01    0.584E-01
RMM:   3    -0.413578578196E+03    0.68459E-02   -0.69322E-04  4917   0.482E-02    0.132E-01
RMM:   4    -0.413578562951E+03    0.15245E-04   -0.20927E-04  3656   0.315E-02
 A1 parameter for BJ-Damping is not reasonable. Taking default.
  71 F= -.42367268E+03 E0= -.42366121E+03  d E =-.737636E-03  mag=     0.8146
 curvature:  -5.97 expect dE=-0.187E-02 dE for cont linesearch -0.229E-06
 trial: gam= 1.30642 g(F)=  0.313E-03 g(S)=  0.000E+00 ort = 0.376E-05 (trialstep = 0.143E+01)
 search vector abs. value=  0.954E-03
 bond charge predicted
       N       E                     dE             d eps       ncg     rms          rms(c)
DAV:   1    -0.413578059207E+03    0.51899E-03   -0.82457E-02  5520   0.640E-01    0.110E-01
RMM:   2    -0.413580489911E+03   -0.24307E-02   -0.24560E-03  5366   0.981E-02    0.366E-01
RMM:   3    -0.413578354902E+03    0.21350E-02   -0.39991E-04  4290   0.353E-02    0.133E-01
RMM:   4    -0.413578069051E+03    0.28585E-03   -0.99692E-05  3139   0.209E-02    0.618E-02
RMM:   5    -0.413578053581E+03    0.15470E-04   -0.67907E-05  2963   0.159E-02
 A1 parameter for BJ-Damping is not reasonable. Taking default.
  72 F= -.42367293E+03 E0= -.42366138E+03  d E =-.244065E-03  mag=     0.8152
 trial-energy change:   -0.000244  1 .order   -0.000391   -0.000455   -0.000327
 step:   5.0993(harm=  5.0993)  dis= 0.00336  next Energy=  -423.673494 (dE=-0.811E-03)
 bond charge predicted
       N       E                     dE             d eps       ncg     rms          rms(c)
DAV:   1    -0.413575790373E+03    0.22787E-02   -0.54981E-01  5488   0.165E+00    0.182E-01
RMM:   2    -0.413578506197E+03   -0.27158E-02   -0.10884E-02  5396   0.214E-01    0.359E-01
RMM:   3    -0.413576987200E+03    0.15190E-02   -0.55986E-04  4580   0.431E-02    0.202E-01
RMM:   4    -0.413576583640E+03    0.40356E-03   -0.27686E-04  3788   0.307E-02    0.144E-01
RMM:   5    -0.413576425406E+03    0.15823E-03   -0.22512E-04  3559   0.276E-02    0.926E-02
RMM:   6    -0.413576453464E+03   -0.28059E-04   -0.17638E-04  3484   0.247E-02
 A1 parameter for BJ-Damping is not reasonable. Taking default.
  73 F= -.42367326E+03 E0= -.42366177E+03  d E =-.578677E-03  mag=     0.8174
 curvature:  -7.65 expect dE=-0.174E-02 dE for cont linesearch -0.373E-04
 ZBRENT: interpolating
 opt :   4.2566  next Energy=  -423.673290 (dE=-0.607E-03)
 bond charge predicted
       N       E                     dE             d eps       ncg     rms          rms(c)
DAV:   1    -0.413576789441E+03   -0.36404E-03   -0.29717E-02  5560   0.389E-01    0.577E-02
RMM:   2    -0.413577227622E+03   -0.43818E-03   -0.92861E-04  5136   0.623E-02    0.169E-01
RMM:   3    -0.413576813121E+03    0.41450E-03   -0.13502E-04  3263   0.205E-02    0.435E-02
RMM:   4    -0.413576798215E+03    0.14906E-04   -0.21396E-05  2590   0.995E-03
 A1 parameter for BJ-Damping is not reasonable. Taking default.
  74 F= -.42367316E+03 E0= -.42366167E+03  d E =-.479046E-03  mag=     0.8178
 curvature:  -5.89 expect dE=-0.831E-03 dE for cont linesearch -0.314E-06
 trial: gam= 0.41536 g(F)=  0.141E-03 g(S)=  0.000E+00 ort =-0.713E-05 (trialstep = 0.199E+01)
 search vector abs. value=  0.300E-03
 reached required accuracy - stopping structural energy minimisation
