<?xml version="1.0" encoding="ISO-8859-1"?>
<modeling>
 <generator>
  <i name="program" type="string">vasp </i>
  <i name="version" type="string">5.4.1  </i>
  <i name="subversion" type="string">08Jul2015 (build Apr 24 2014 00:09:29) complex standard with constrain (TS)     parallel </i>
  <i name="platform" type="string">IBM of Center for Computational Chemistry </i>
  <i name="date" type="string">2017 12 17 </i>
  <i name="time" type="string">16:44:11 </i>
 </generator>
 <incar>
  <i type="string" name="SYSTEM"> MoO2_suf110_2x1x4_2fix</i>
  <i type="int" name="ISTART">     0</i>
  <i type="string" name="PREC">accurate       ! [low/medium/high/norma</i>
  <i type="string" name="ALGO">Fast</i>
  <i type="int" name="ISPIN">     2</i>
  <i type="int" name="NELM">   300</i>
  <i type="int" name="NELMIN">     3</i>
  <i type="int" name="IBRION">     2</i>
  <i name="EDIFFG">     -0.05000000</i>
  <i type="int" name="NSW">  1000</i>
  <i type="int" name="ISIF">     2</i>
  <i type="int" name="ISYM">     0</i>
  <i name="ENCUT">    500.00000000</i>
  <i name="POTIM">      0.10000000</i>
  <i type="string" name="LREAL"> A    ! aproximace, T zpomaluje, ale pre</i>
  <i type="int" name="ISMEAR">     0</i>
  <i name="SIGMA">      0.05000000</i>
  <i type="int" name="NWRITE">     2</i>
  <i type="logical" name="LWAVE"> F  </i>
  <i type="logical" name="LCHARG"> F  </i>
  <v type="int" name="KPOINT_BSE">    -1     0     0     0</v>
  <i type="int" name="NELM">   300</i>
 </incar>
 <kpoints>
  <generation param="Gamma">
   <v type="int" name="divisions">       4        3        1 </v>
   <v name="usershift">      0.00000000       0.00000000       0.00000000 </v>
   <v name="genvec1">      0.25000000       0.00000000       0.00000000 </v>
   <v name="genvec2">      0.00000000       0.33333333       0.00000000 </v>
   <v name="genvec3">      0.00000000       0.00000000       1.00000000 </v>
   <v name="shift">      0.00000000       0.00000000       0.00000000 </v>
  </generation>
  <varray name="kpointlist" >
   <v>       0.00000000       0.00000000       0.00000000 </v>
   <v>       0.25000000       0.00000000       0.00000000 </v>
   <v>       0.50000000       0.00000000       0.00000000 </v>
   <v>       0.00000000       0.33333333       0.00000000 </v>
   <v>       0.25000000       0.33333333       0.00000000 </v>
   <v>       0.50000000       0.33333333       0.00000000 </v>
   <v>      -0.25000000       0.33333333       0.00000000 </v>
  </varray>
  <varray name="weights" >
   <v>       0.08333333 </v>
   <v>       0.16666667 </v>
   <v>       0.08333333 </v>
   <v>       0.16666667 </v>
   <v>       0.16666667 </v>
   <v>       0.16666667 </v>
   <v>       0.16666667 </v>
  </varray>
 </kpoints>
 <parameters>
  <separator name="general" >
   <i type="string" name="SYSTEM">MoO2_suf110_2x1x4_2fix</i>
   <i type="logical" name="LCOMPAT"> F  </i>
  </separator>
  <separator name="electronic" >
   <i type="string" name="PREC">accura</i>
   <i name="ENMAX">    500.00000000</i>
   <i name="ENAUG">    605.39200000</i>
   <i name="EDIFF">      0.00010000</i>
   <i type="int" name="IALGO">    68</i>
   <i type="int" name="IWAVPR">    11</i>
   <i type="int" name="NBANDS">   196</i>
   <i name="NELECT">    288.00000000</i>
   <i type="int" name="TURBO">     0</i>
   <i type="int" name="IRESTART">     0</i>
   <i type="int" name="NREBOOT">     0</i>
   <i type="int" name="NMIN">     0</i>
   <i name="EREF">      0.00000000</i>
   <separator name="electronic smearing" >
    <i type="int" name="ISMEAR">     0</i>
    <i name="SIGMA">      0.05000000</i>
    <i name="KSPACING">      0.50000000</i>
    <i type="logical" name="KGAMMA"> T  </i>
   </separator>
   <separator name="electronic projectors" >
    <i type="logical" name="LREAL"> T  </i>
    <v name="ROPT">     -0.00025000     -0.00025000</v>
    <i type="int" name="LMAXPAW">  -100</i>
    <i type="int" name="LMAXMIX">     2</i>
    <i type="logical" name="NLSPLINE"> F  </i>
   </separator>
   <separator name="electronic startup" >
    <i type="int" name="ISTART">     0</i>
    <i type="int" name="ICHARG">     2</i>
    <i type="int" name="INIWAV">     1</i>
   </separator>
   <separator name="electronic spin" >
    <i type="int" name="ISPIN">     2</i>
    <i type="logical" name="LNONCOLLINEAR"> F  </i>
    <v name="MAGMOM">      1.00000000      1.00000000      1.00000000      1.00000000      1.00000000      1.00000000      1.00000000      1.00000000      1.00000000      1.00000000      1.00000000      1.00000000      1.00000000      1.00000000      1.00000000      1.00000000      1.00000000      1.00000000      1.00000000      1.00000000
      1.00000000      1.00000000      1.00000000      1.00000000      1.00000000      1.00000000      1.00000000      1.00000000      1.00000000      1.00000000      1.00000000      1.00000000      1.00000000      1.00000000      1.00000000      1.00000000      1.00000000      1.00000000      1.00000000      1.00000000
      1.00000000      1.00000000      1.00000000      1.00000000      1.00000000      1.00000000      1.00000000      1.00000000</v>
    <i name="NUPDOWN">     -1.00000000</i>
    <i type="logical" name="LSORBIT"> F  </i>
    <v name="SAXIS">      0.00000000      0.00000000      1.00000000</v>
    <i type="logical" name="LSPIRAL"> F  </i>
    <v name="QSPIRAL">      0.00000000      0.00000000      0.00000000</v>
    <i type="logical" name="LZEROZ"> F  </i>
   </separator>
   <separator name="electronic exchange-correlation" >
    <i type="logical" name="LASPH"> F  </i>
    <i type="logical" name="LMETAGGA"> F  </i>
   </separator>
   <separator name="electronic convergence" >
    <i type="int" name="NELM">   300</i>
    <i type="int" name="NELMDL">    -5</i>
    <i type="int" name="NELMIN">     3</i>
    <i name="ENINI">    500.00000000</i>
    <separator name="electronic convergence detail" >
     <i type="logical" name="LDIAG"> T  </i>
     <i type="logical" name="LSUBROT"> F  </i>
     <i name="WEIMIN">      0.00100000</i>
     <i name="EBREAK">      0.00000013</i>
     <i name="DEPER">      0.30000000</i>
     <i type="int" name="NRMM">     4</i>
     <i name="TIME">      0.40000000</i>
    </separator>
   </separator>
   <separator name="electronic mixer" >
    <i name="AMIX">      0.40000000</i>
    <i name="BMIX">      1.00000000</i>
    <i name="AMIN">      0.10000000</i>
    <i name="AMIX_MAG">      1.60000000</i>
    <i name="BMIX_MAG">      1.00000000</i>
    <separator name="electronic mixer details" >
     <i type="int" name="IMIX">     4</i>
     <i type="logical" name="MIXFIRST"> F  </i>
     <i type="int" name="MAXMIX">   -45</i>
     <i name="WC">    100.00000000</i>
     <i type="int" name="INIMIX">     1</i>
     <i type="int" name="MIXPRE">     1</i>
     <i type="int" name="MREMOVE">     5</i>
    </separator>
   </separator>
   <separator name="electronic dipolcorrection" >
    <i type="logical" name="LDIPOL"> F  </i>
    <i type="logical" name="LMONO"> F  </i>
    <i type="int" name="IDIPOL">     0</i>
    <i name="EPSILON">      1.00000000</i>
    <v name="DIPOL">   -100.00000000   -100.00000000   -100.00000000</v>
    <i name="EFIELD">      0.00000000</i>
   </separator>
  </separator>
  <separator name="grids" >
   <i type="int" name="NGX">    40</i>
   <i type="int" name="NGY">    54</i>
   <i type="int" name="NGZ">   180</i>
   <i type="int" name="NGXF">    80</i>
   <i type="int" name="NGYF">   108</i>
   <i type="int" name="NGZF">   360</i>
   <i type="logical" name="ADDGRID"> F  </i>
  </separator>
  <separator name="ionic" >
   <i type="int" name="NSW">  1000</i>
   <i type="int" name="IBRION">     2</i>
   <i type="int" name="ISIF">     2</i>
   <i name="PSTRESS">      0.00000000</i>
   <i name="EDIFFG">     -0.05000000</i>
   <i type="int" name="NFREE">     1</i>
   <i name="POTIM">      0.10000000</i>
   <i name="SMASS">     -3.00000000</i>
   <i name="SCALEE">      1.00000000</i>
  </separator>
  <separator name="ionic md" >
   <i name="TEBEG">      0.00010000</i>
   <i name="TEEND">      0.00010000</i>
   <i type="int" name="NBLOCK">     1</i>
   <i type="int" name="KBLOCK">  1000</i>
   <i type="int" name="NPACO">   256</i>
   <i name="APACO">     16.00000000</i>
  </separator>
  <separator name="symmetry" >
   <i type="int" name="ISYM">     0</i>
   <i name="SYMPREC">      0.00001000</i>
  </separator>
  <separator name="dos" >
   <i type="logical" name="LORBIT"> F  </i>
   <v name="RWIGS">     -1.00000000     -1.00000000</v>
   <i type="int" name="NEDOS">   301</i>
   <i name="EMIN">     10.00000000</i>
   <i name="EMAX">    -10.00000000</i>
   <i name="EFERMI">      0.00000000</i>
  </separator>
  <separator name="writing" >
   <i type="int" name="NWRITE">     2</i>
   <i type="logical" name="LWAVE"> F  </i>
   <i type="logical" name="LCHARG"> F  </i>
   <i type="logical" name="LPARD"> F  </i>
   <i type="logical" name="LVTOT"> F  </i>
   <i type="logical" name="LVHAR"> F  </i>
   <i type="logical" name="LELF"> F  </i>
   <i type="logical" name="LOPTICS"> F  </i>
   <v name="STM">      0.00000000      0.00000000      0.00000000      0.00000000      0.00000000      0.00000000      0.00000000</v>
  </separator>
  <separator name="performance" >
   <i type="int" name="NPAR">     4</i>
   <i type="int" name="NSIM">     4</i>
   <i type="int" name="NBLK">    -1</i>
   <i type="logical" name="LPLANE"> T  </i>
   <i type="logical" name="LSCALAPACK"> T  </i>
   <i type="logical" name="LSCAAWARE"> F  </i>
   <i type="logical" name="LSCALU"> F  </i>
   <i type="logical" name="LASYNC"> F  </i>
   <i type="logical" name="LORBITALREAL"> F  </i>
  </separator>
  <separator name="miscellaneous" >
   <i type="int" name="IDIOT">     3</i>
   <i type="logical" name="LMUSIC"> F  </i>
   <v name="POMASS">     16.00000000     95.94000000</v>
   <v name="DARWINR">      0.00000000      0.00000000</v>
   <v name="DARWINV">      1.00000000      1.00000000</v>
   <i type="logical" name="LCORR"> T  </i>
  </separator>
  <i type="logical" name="GGA_COMPAT"> T  </i>
  <i type="logical" name="LBERRY"> F  </i>
  <i type="int" name="ICORELEVEL">     0</i>
  <i type="logical" name="LDAU"> F  </i>
  <i type="int" name="I_CONSTRAINED_M">     0</i>
  <separator name="electronic exchange-correlation" >
   <i type="string" name="GGA">--</i>
   <i type="int" name="VOSKOWN">     0</i>
   <i type="logical" name="LHFCALC"> F  </i>
   <i type="string" name="PRECFOCK"></i>
   <i type="logical" name="LSYMGRAD"> F  </i>
   <i type="logical" name="LHFONE"> F  </i>
   <i type="logical" name="LRHFCALC"> F  </i>
   <i type="logical" name="LTHOMAS"> F  </i>
   <i type="logical" name="LMODELHF"> F  </i>
   <i name="ENCUT4O">     -1.00000000</i>
   <i type="int" name="EXXOEP">     0</i>
   <i type="int" name="FOURORBIT">     0</i>
   <i name="AEXX">      0.00000000</i>
   <i name="HFALPHA">      0.00000000</i>
   <i name="MCALPHA">      0.00000000</i>
   <i name="ALDAX">      1.00000000</i>
   <i name="AGGAX">      1.00000000</i>
   <i name="ALDAC">      1.00000000</i>
   <i name="AGGAC">      1.00000000</i>
   <i type="int" name="NKREDX">     1</i>
   <i type="int" name="NKREDY">     1</i>
   <i type="int" name="NKREDZ">     1</i>
   <i type="logical" name="SHIFTRED"> F  </i>
   <i type="logical" name="ODDONLY"> F  </i>
   <i type="logical" name="EVENONLY"> F  </i>
   <i type="int" name="LMAXFOCK">     0</i>
   <i type="int" name="NMAXFOCKAE">     0</i>
   <i type="logical" name="LFOCKAEDFT"> F  </i>
   <i name="HFSCREEN">      0.00000000</i>
   <i name="HFSCREENC">      0.00000000</i>
   <i type="int" name="NBANDSGWLOW">     0</i>
  </separator>
  <separator name="vdW DFT" >
   <i type="logical" name="LUSE_VDW"> F  </i>
   <i name="Zab_VDW">     -0.84910000</i>
   <i name="PARAM1">      0.12340000</i>
   <i name="PARAM2">      1.00000000</i>
   <i name="PARAM3">      0.00000000</i>
  </separator>
  <separator name="model GW" >
   <i type="int" name="MODEL_GW">     0</i>
   <i name="MODEL_EPS0">     11.20665610</i>
   <i name="MODEL_ALPHA">      1.00000000</i>
  </separator>
  <separator name="linear response parameters" >
   <i type="logical" name="LEPSILON"> F  </i>
   <i type="logical" name="LRPA"> F  </i>
   <i type="logical" name="LNABLA"> F  </i>
   <i type="logical" name="LVEL"> F  </i>
   <i type="int" name="KINTER">     0</i>
   <i name="CSHIFT">      0.10000000</i>
   <i name="OMEGAMAX">     -1.00000000</i>
   <i name="DEG_THRESHOLD">      0.00200000</i>
  </separator>
  <separator name="orbital magnetization" >
   <i type="logical" name="NUCIND"> F  </i>
   <v name="MAGPOS">      0.00000000      0.00000000      0.00000000</v>
   <i type="logical" name="LNICSALL"> T  </i>
   <i type="logical" name="ORBITALMAG"> F  </i>
   <i type="logical" name="LMAGBLOCH"> F  </i>
   <i type="logical" name="LCHIMAG"> F  </i>
   <i type="logical" name="LGAUGE"> T  </i>
   <i type="int" name="MAGATOM">     0</i>
   <v name="MAGDIPOL">      0.00000000      0.00000000      0.00000000</v>
   <v name="AVECCONST">      0.00000000      0.00000000      0.00000000</v>
  </separator>
  <separator name="response functions" >
   <i type="logical" name="LADDER"> F  </i>
   <i type="logical" name="LFXC"> F  </i>
   <i type="logical" name="LHARTREE"> T  </i>
   <i type="int" name="IBSE">     0</i>
   <v type="int" name="KPOINT">    -1     0     0     0</v>
   <i type="logical" name="LTCTE"> F  </i>
   <i type="logical" name="LTETE"> F  </i>
   <i type="logical" name="LTRIPLET"> F  </i>
   <i type="logical" name="LFXCEPS"> F  </i>
   <i type="logical" name="LFXHEG"> F  </i>
   <i type="int" name="NATURALO">     0</i>
   <i type="logical" name="L2ORDER"> F  </i>
   <i type="logical" name="LUSEW"> F  </i>
   <i name="ENCUTGW">     -2.00000000</i>
   <i name="ENCUTGWSOFT">     -2.00000000</i>
   <i name="ENCUTLF">     -1.00000000</i>
   <i type="int" name="LMAXMP2">    -1</i>
   <i name="SCISSOR">      0.00000000</i>
   <i type="int" name="NOMEGA">     0</i>
   <i type="int" name="NOMEGAR">     0</i>
   <i type="int" name="NBANDSGW">    -1</i>
   <i type="int" name="NBANDSO">    -1</i>
   <i type="int" name="NBANDSV">    -1</i>
   <i type="int" name="NELM">   300</i>
   <i type="int" name="NELMHF">     1</i>
   <i type="int" name="DIM">     3</i>
   <i type="int" name="ANTIRES">     0</i>
   <i name="OMEGAMAX">    -30.00000000</i>
   <i name="OMEGAMIN">    -30.00000000</i>
   <i name="OMEGATL">   -200.00000000</i>
   <i type="int" name="OMEGAGRID">     0</i>
   <i name="CSHIFT">     -0.10000000</i>
   <i type="logical" name="SELFENERGY"> F  </i>
   <i type="logical" name="LSPECTRAL"> F  </i>
   <i type="logical" name="LSPECTRALGW"> F  </i>
   <i type="logical" name="LSINGLES"> F  </i>
   <i type="logical" name="LFERMIGW"> F  </i>
   <i type="logical" name="ODDONLYGW"> F  </i>
   <i type="logical" name="EVENONLYGW"> F  </i>
   <i type="int" name="NKREDLFX">     1</i>
   <i type="int" name="NKREDLFY">     1</i>
   <i type="int" name="NKREDLFZ">     1</i>
   <i type="int" name="MAXMEM">  1800</i>
   <i type="int" name="TELESCOPE">     0</i>
   <i type="int" name="TAUPAR">     1</i>
   <i type="int" name="OMEGAPAR">    -1</i>
   <i name="LAMBDA">      1.00000000</i>
  </separator>
  <separator name="External order field" >
   <i name="OFIELD_KAPPA">      0.00000000</i>
   <v name="OFIELD_K">      0.00000000      0.00000000      0.00000000</v>
   <i name="OFIELD_Q6_NEAR">      0.00000000</i>
   <i name="OFIELD_Q6_FAR">      0.00000000</i>
   <i name="OFIELD_A">      0.00000000</i>
  </separator>
 </parameters>
 <atominfo>
  <atoms>      48 </atoms>
  <types>       2 </types>
  <array name="atoms" >
   <dimension dim="1">ion</dimension>
   <field type="string">element</field>
   <field type="int">atomtype</field>
   <set>
    <rc><c>O </c><c>   1</c></rc>
    <rc><c>O </c><c>   1</c></rc>
    <rc><c>O </c><c>   1</c></rc>
    <rc><c>O </c><c>   1</c></rc>
    <rc><c>O </c><c>   1</c></rc>
    <rc><c>O </c><c>   1</c></rc>
    <rc><c>O </c><c>   1</c></rc>
    <rc><c>O </c><c>   1</c></rc>
    <rc><c>O </c><c>   1</c></rc>
    <rc><c>O </c><c>   1</c></rc>
    <rc><c>O </c><c>   1</c></rc>
    <rc><c>O </c><c>   1</c></rc>
    <rc><c>O </c><c>   1</c></rc>
    <rc><c>O </c><c>   1</c></rc>
    <rc><c>O </c><c>   1</c></rc>
    <rc><c>O </c><c>   1</c></rc>
    <rc><c>O </c><c>   1</c></rc>
    <rc><c>O </c><c>   1</c></rc>
    <rc><c>O </c><c>   1</c></rc>
    <rc><c>O </c><c>   1</c></rc>
    <rc><c>O </c><c>   1</c></rc>
    <rc><c>O </c><c>   1</c></rc>
    <rc><c>O </c><c>   1</c></rc>
    <rc><c>O </c><c>   1</c></rc>
    <rc><c>O </c><c>   1</c></rc>
    <rc><c>O </c><c>   1</c></rc>
    <rc><c>O </c><c>   1</c></rc>
    <rc><c>O </c><c>   1</c></rc>
    <rc><c>O </c><c>   1</c></rc>
    <rc><c>O </c><c>   1</c></rc>
    <rc><c>O </c><c>   1</c></rc>
    <rc><c>O </c><c>   1</c></rc>
    <rc><c>Mo</c><c>   2</c></rc>
    <rc><c>Mo</c><c>   2</c></rc>
    <rc><c>Mo</c><c>   2</c></rc>
    <rc><c>Mo</c><c>   2</c></rc>
    <rc><c>Mo</c><c>   2</c></rc>
    <rc><c>Mo</c><c>   2</c></rc>
    <rc><c>Mo</c><c>   2</c></rc>
    <rc><c>Mo</c><c>   2</c></rc>
    <rc><c>Mo</c><c>   2</c></rc>
    <rc><c>Mo</c><c>   2</c></rc>
    <rc><c>Mo</c><c>   2</c></rc>
    <rc><c>Mo</c><c>   2</c></rc>
    <rc><c>Mo</c><c>   2</c></rc>
    <rc><c>Mo</c><c>   2</c></rc>
    <rc><c>Mo</c><c>   2</c></rc>
    <rc><c>Mo</c><c>   2</c></rc>
   </set>
  </array>
  <array name="atomtypes" >
   <dimension dim="1">type</dimension>
   <field type="int">atomspertype</field>
   <field type="string">element</field>
   <field>mass</field>
   <field>valence</field>
   <field type="string">pseudopotential</field>
   <set>
    <rc><c>  32</c><c>O </c><c>     16.00000000</c><c>      6.00000000</c><c>  PAW_PBE O 08Apr2002                   </c></rc>
    <rc><c>  16</c><c>Mo</c><c>     95.94000000</c><c>      6.00000000</c><c>  PAW_PBE Mo 08Apr2002                  </c></rc>
   </set>
  </array>
 </atominfo>
 <structure name="initialpos" >
  <crystal>
   <varray name="basis" >
    <v>       0.00000000       0.00000000       5.45982775 </v>
    <v>       4.93807595      -4.93807595       0.00000000 </v>
    <v>      16.62644229      16.62644229       0.00000000 </v>
   </varray>
   <i name="volume">    896.53248773 </i>
   <varray name="rec_basis" >
    <v>       0.00000000       0.00000000       0.18315596 </v>
    <v>       0.10125401      -0.10125401       0.00000000 </v>
    <v>       0.03007258       0.03007258       0.00000000 </v>
   </varray>
  </crystal>
  <varray name="positions" >
   <v>       0.13081166       0.56969810       0.00000000 </v>
   <v>       0.63081166       0.56969810       0.00000000 </v>
   <v>       0.38081166       0.28721810       0.06460374 </v>
   <v>       0.88081166       0.28721810       0.06460374 </v>
   <v>       0.38081166       0.85217810       0.06460374 </v>
   <v>       0.88081166       0.85217810       0.06460374 </v>
   <v>       0.13081166       0.56969810       0.12920747 </v>
   <v>       0.63081166       0.56969810       0.12920747 </v>
   <v>       0.13081166       0.06969810       0.14850068 </v>
   <v>       0.63081166       0.06969810       0.14850068 </v>
   <v>       0.38081166       0.35217810       0.21310441 </v>
   <v>       0.88081166       0.35217810       0.21310441 </v>
   <v>       0.38081166       0.78721810       0.21310441 </v>
   <v>       0.88081166       0.78721810       0.21310441 </v>
   <v>       0.13081166       0.06969810       0.27770815 </v>
   <v>       0.63081166       0.06969810       0.27770815 </v>
   <v>       0.13081166       0.56969810       0.29700136 </v>
   <v>       0.63081166       0.56969810       0.29700136 </v>
   <v>       0.38081166       0.28721810       0.36160509 </v>
   <v>       0.88081166       0.28721810       0.36160509 </v>
   <v>       0.38081166       0.85217810       0.36160509 </v>
   <v>       0.88081166       0.85217810       0.36160509 </v>
   <v>       0.13081166       0.56969810       0.42620883 </v>
   <v>       0.63081166       0.56969810       0.42620883 </v>
   <v>       0.13081166       0.06969810       0.44550204 </v>
   <v>       0.63081166       0.06969810       0.44550204 </v>
   <v>       0.38081166       0.35217810       0.51010577 </v>
   <v>       0.88081166       0.35217810       0.51010577 </v>
   <v>       0.38081166       0.78721810       0.51010577 </v>
   <v>       0.88081166       0.78721810       0.51010577 </v>
   <v>       0.13081166       0.06969810       0.57470951 </v>
   <v>       0.63081166       0.06969810       0.57470951 </v>
   <v>       0.13081166       0.06969810       0.06460374 </v>
   <v>       0.63081166       0.06969810       0.06460374 </v>
   <v>       0.38081166       0.56969810       0.06460374 </v>
   <v>       0.88081166       0.56969810       0.06460374 </v>
   <v>       0.38081166       0.06969810       0.21310441 </v>
   <v>       0.88081166       0.06969810       0.21310441 </v>
   <v>       0.13081166       0.56969810       0.21310441 </v>
   <v>       0.63081166       0.56969810       0.21310441 </v>
   <v>       0.13081166       0.06969810       0.36160509 </v>
   <v>       0.63081166       0.06969810       0.36160509 </v>
   <v>       0.38081166       0.56969810       0.36160509 </v>
   <v>       0.88081166       0.56969810       0.36160509 </v>
   <v>       0.38081166       0.06969810       0.51010577 </v>
   <v>       0.88081166       0.06969810       0.51010577 </v>
   <v>       0.13081166       0.56969810       0.51010577 </v>
   <v>       0.63081166       0.56969810       0.51010577 </v>
  </varray>
  <varray name="selective"  type="logical" >
   <v type="logical" >  F  F  F </v>
   <v type="logical" >  F  F  F </v>
   <v type="logical" >  F  F  F </v>
   <v type="logical" >  F  F  F </v>
   <v type="logical" >  F  F  F </v>
   <v type="logical" >  F  F  F </v>
   <v type="logical" >  F  F  F </v>
   <v type="logical" >  F  F  F </v>
   <v type="logical" >  F  F  F </v>
   <v type="logical" >  F  F  F </v>
   <v type="logical" >  F  F  F </v>
   <v type="logical" >  F  F  F </v>
   <v type="logical" >  F  F  F </v>
   <v type="logical" >  F  F  F </v>
   <v type="logical" >  F  F  F </v>
   <v type="logical" >  F  F  F </v>
   <v type="logical" >  T  T  T </v>
   <v type="logical" >  T  T  T </v>
   <v type="logical" >  T  T  T </v>
   <v type="logical" >  T  T  T </v>
   <v type="logical" >  T  T  T </v>
   <v type="logical" >  T  T  T </v>
   <v type="logical" >  T  T  T </v>
   <v type="logical" >  T  T  T </v>
   <v type="logical" >  T  T  T </v>
   <v type="logical" >  T  T  T </v>
   <v type="logical" >  T  T  T </v>
   <v type="logical" >  T  T  T </v>
   <v type="logical" >  T  T  T </v>
   <v type="logical" >  T  T  T </v>
   <v type="logical" >  T  T  T </v>
   <v type="logical" >  T  T  T </v>
   <v type="logical" >  F  F  F </v>
   <v type="logical" >  F  F  F </v>
   <v type="logical" >  F  F  F </v>
   <v type="logical" >  F  F  F </v>
   <v type="logical" >  F  F  F </v>
   <v type="logical" >  F  F  F </v>
   <v type="logical" >  F  F  F </v>
   <v type="logical" >  F  F  F </v>
   <v type="logical" >  T  T  T </v>
   <v type="logical" >  T  T  T </v>
   <v type="logical" >  T  T  T </v>
   <v type="logical" >  T  T  T </v>
   <v type="logical" >  T  T  T </v>
   <v type="logical" >  T  T  T </v>
   <v type="logical" >  T  T  T </v>
   <v type="logical" >  T  T  T </v>
  </varray>
  <nose>
   <v>      -3.00000000       0.00000000       0.00010000       0.00010000 </v>
  </nose>
 </structure>
 <calculation>
  <scstep>
   <time name="dav">   17.45   17.45</time>
   <time name="total">   17.81   17.83</time>
   <energy>
    <i name="alphaZ">    826.07524987 </i>
    <i name="ewald">  50164.08087601 </i>
    <i name="hartreedc"> -67178.97853599 </i>
    <i name="XCdc">    -90.72558877 </i>
    <i name="pawpsdc">  15333.00323666 </i>
    <i name="pawaedc"> -14251.79253270 </i>
    <i name="eentropy">     -0.01906303 </i>
    <i name="bandstr">    116.07208324 </i>
    <i name="atom">  17315.66014183 </i>
    <i name="e_fr_energy">   2233.37586713 </i>
    <i name="e_wo_entrp">   2233.39493016 </i>
    <i name="e_0_energy">   2233.38539864 </i>
   </energy>
  </scstep>
  <scstep>
   <time name="dav">   20.30   20.31</time>
   <time name="total">   20.31   20.32</time>
   <energy>
    <i name="e_fr_energy">   -199.88886707 </i>
    <i name="e_wo_entrp">   -199.86176958 </i>
    <i name="e_0_energy">   -199.87531832 </i>
   </energy>
  </scstep>
  <scstep>
   <time name="dav">   19.65   19.66</time>
   <time name="total">   19.65   19.85</time>
   <energy>
    <i name="e_fr_energy">   -479.63808131 </i>
    <i name="e_wo_entrp">   -479.59973831 </i>
    <i name="e_0_energy">   -479.61890981 </i>
   </energy>
  </scstep>
  <scstep>
   <time name="dav">   20.82   20.82</time>
   <time name="total">   20.82   20.83</time>
   <energy>
    <i name="e_fr_energy">   -489.32009665 </i>
    <i name="e_wo_entrp">   -489.28348682 </i>
    <i name="e_0_energy">   -489.30179174 </i>
   </energy>
  </scstep>
  <scstep>
   <time name="dav">   20.56   20.57</time>
   <time name="total">   21.20   21.21</time>
   <energy>
    <i name="e_fr_energy">   -489.60835533 </i>
    <i name="e_wo_entrp">   -489.57171578 </i>
    <i name="e_0_energy">   -489.59003556 </i>
   </energy>
  </scstep>
  <scstep>
   <time name="diag">    2.95    2.95</time>
   <time name="diis">   10.28   10.28</time>
   <time name="orth">    0.54    0.54</time>
   <time name="total">   14.76   14.77</time>
   <energy>
    <i name="e_fr_energy">   -364.44771497 </i>
    <i name="e_wo_entrp">   -364.43583001 </i>
    <i name="e_0_energy">   -364.44177249 </i>
   </energy>
  </scstep>
  <scstep>
   <time name="diag">    2.95    2.95</time>
   <time name="diis">   10.24   10.24</time>
   <time name="orth">    0.54    0.54</time>
   <time name="total">   14.72   14.73</time>
   <energy>
    <i name="e_fr_energy">   -393.54738350 </i>
    <i name="e_wo_entrp">   -393.52202327 </i>
    <i name="e_0_energy">   -393.53470338 </i>
   </energy>
  </scstep>
  <scstep>
   <time name="diag">    2.95    2.95</time>
   <time name="diis">   10.26   10.26</time>
   <time name="orth">    0.54    0.54</time>
   <time name="total">   14.73   14.75</time>
   <energy>
    <i name="e_fr_energy">   -379.53080299 </i>
    <i name="e_wo_entrp">   -379.49127951 </i>
    <i name="e_0_energy">   -379.51104125 </i>
   </energy>
  </scstep>
  <scstep>
   <time name="diag">    2.95    2.95</time>
   <time name="diis">   10.29   10.30</time>
   <time name="orth">    0.53    0.54</time>
   <time name="total">   14.76   15.04</time>
   <energy>
    <i name="e_fr_energy">   -372.17469322 </i>
    <i name="e_wo_entrp">   -372.15497331 </i>
    <i name="e_0_energy">   -372.16483327 </i>
   </energy>
  </scstep>
  <scstep>
   <time name="diag">    2.95    2.95</time>
   <time name="diis">   10.35   10.36</time>
   <time name="orth">    0.54    0.54</time>
   <time name="total">   14.82   14.83</time>
   <energy>
    <i name="e_fr_energy">   -374.97299739 </i>
    <i name="e_wo_entrp">   -374.93660310 </i>
    <i name="e_0_energy">   -374.95480024 </i>
   </energy>
  </scstep>
  <scstep>
   <time name="diag">    2.96    2.96</time>
   <time name="diis">   10.29   10.29</time>
   <time name="orth">    0.54    0.54</time>
   <time name="total">   14.77   14.78</time>
   <energy>
    <i name="e_fr_energy">   -372.69799742 </i>
    <i name="e_wo_entrp">   -372.67173896 </i>
    <i name="e_0_energy">   -372.68486819 </i>
   </energy>
  </scstep>
  <scstep>
   <time name="diag">    2.96    2.96</time>
   <time name="diis">   10.31   10.31</time>
   <time name="orth">    0.54    0.54</time>
   <time name="total">   14.79   14.80</time>
   <energy>
    <i name="e_fr_energy">   -371.37512298 </i>
    <i name="e_wo_entrp">   -371.34444598 </i>
    <i name="e_0_energy">   -371.35978448 </i>
   </energy>
  </scstep>
  <scstep>
   <time name="diag">    2.95    2.95</time>
   <time name="diis">   10.30   10.30</time>
   <time name="orth">    0.54    0.54</time>
   <time name="total">   14.77   14.78</time>
   <energy>
    <i name="e_fr_energy">   -374.83479629 </i>
    <i name="e_wo_entrp">   -374.81167869 </i>
    <i name="e_0_energy">   -374.82323749 </i>
   </energy>
  </scstep>
  <scstep>
   <time name="diag">    2.96    2.96</time>
   <time name="diis">   10.28   10.28</time>
   <time name="orth">    0.54    0.54</time>
   <time name="total">   14.76   14.78</time>
   <energy>
    <i name="e_fr_energy">   -380.32084764 </i>
    <i name="e_wo_entrp">   -380.29511711 </i>
    <i name="e_0_energy">   -380.30798237 </i>
   </energy>
  </scstep>
  <scstep>
   <time name="diag">    2.96    2.96</time>
   <time name="diis">   10.26   10.26</time>
   <time name="orth">    0.54    0.54</time>
   <time name="total">   14.74   15.07</time>
   <energy>
    <i name="e_fr_energy">   -390.82858479 </i>
    <i name="e_wo_entrp">   -390.79239378 </i>
    <i name="e_0_energy">   -390.81048928 </i>
   </energy>
  </scstep>
  <scstep>
   <time name="diag">    2.96    2.96</time>
   <time name="diis">   10.27   10.28</time>
   <time name="orth">    0.54    0.54</time>
   <time name="total">   14.75   14.88</time>
   <energy>
    <i name="e_fr_energy">   -400.65363631 </i>
    <i name="e_wo_entrp">   -400.62644248 </i>
    <i name="e_0_energy">   -400.64003939 </i>
   </energy>
  </scstep>
  <scstep>
   <time name="diag">    2.96    2.96</time>
   <time name="diis">   10.35   10.36</time>
   <time name="orth">    0.54    0.54</time>
   <time name="total">   14.84   14.85</time>
   <energy>
    <i name="e_fr_energy">   -404.75044534 </i>
    <i name="e_wo_entrp">   -404.72563189 </i>
    <i name="e_0_energy">   -404.73803862 </i>
   </energy>
  </scstep>
  <scstep>
   <time name="diag">    2.96    2.97</time>
   <time name="diis">   10.26   10.26</time>
   <time name="orth">    0.53    0.54</time>
   <time name="total">   14.74   14.76</time>
   <energy>
    <i name="e_fr_energy">   -410.20810003 </i>
    <i name="e_wo_entrp">   -410.18732823 </i>
    <i name="e_0_energy">   -410.19771413 </i>
   </energy>
  </scstep>
  <scstep>
   <time name="diag">    2.96    2.96</time>
   <time name="diis">   10.30   10.30</time>
   <time name="orth">    0.53    0.54</time>
   <time name="total">   14.78   14.93</time>
   <energy>
    <i name="e_fr_energy">   -411.18952407 </i>
    <i name="e_wo_entrp">   -411.16122083 </i>
    <i name="e_0_energy">   -411.17537245 </i>
   </energy>
  </scstep>
  <scstep>
   <time name="diag">    2.96    2.96</time>
   <time name="diis">   10.35   10.36</time>
   <time name="orth">    0.53    0.54</time>
   <time name="total">   14.83   14.84</time>
   <energy>
    <i name="e_fr_energy">   -411.34804304 </i>
    <i name="e_wo_entrp">   -411.32685915 </i>
    <i name="e_0_energy">   -411.33745110 </i>
   </energy>
  </scstep>
  <scstep>
   <time name="diag">    2.95    2.95</time>
   <time name="diis">   10.27   10.27</time>
   <time name="orth">    0.54    0.54</time>
   <time name="total">   14.74   14.74</time>
   <energy>
    <i name="e_fr_energy">   -411.49372464 </i>
    <i name="e_wo_entrp">   -411.47171322 </i>
    <i name="e_0_energy">   -411.48271893 </i>
   </energy>
  </scstep>
  <scstep>
   <time name="diag">    2.94    2.94</time>
   <time name="diis">   10.28   10.29</time>
   <time name="orth">    0.54    0.54</time>
   <time name="total">   14.74   14.75</time>
   <energy>
    <i name="e_fr_energy">   -411.68666202 </i>
    <i name="e_wo_entrp">   -411.66270323 </i>
    <i name="e_0_energy">   -411.67468262 </i>
   </energy>
  </scstep>
  <scstep>
   <time name="diag">    2.95    2.95</time>
   <time name="diis">   10.28   10.28</time>
   <time name="orth">    0.54    0.54</time>
   <time name="total">   14.74   14.75</time>
   <energy>
    <i name="e_fr_energy">   -411.74399299 </i>
    <i name="e_wo_entrp">   -411.71998831 </i>
    <i name="e_0_energy">   -411.73199065 </i>
   </energy>
  </scstep>
  <scstep>
   <time name="diag">    2.95    2.95</time>
   <time name="diis">   10.29   10.29</time>
   <time name="orth">    0.54    0.54</time>
   <time name="total">   14.76   14.76</time>
   <energy>
    <i name="e_fr_energy">   -411.77360393 </i>
    <i name="e_wo_entrp">   -411.74843550 </i>
    <i name="e_0_energy">   -411.76101972 </i>
   </energy>
  </scstep>
  <scstep>
   <time name="diag">    2.95    2.95</time>
   <time name="diis">   10.26   10.26</time>
   <time name="orth">    0.54    0.54</time>
   <time name="total">   14.73   14.87</time>
   <energy>
    <i name="e_fr_energy">   -411.73614253 </i>
    <i name="e_wo_entrp">   -411.71028474 </i>
    <i name="e_0_energy">   -411.72321363 </i>
   </energy>
  </scstep>
  <scstep>
   <time name="diag">    2.94    2.95</time>
   <time name="diis">    9.87    9.88</time>
   <time name="orth">    0.53    0.54</time>
   <time name="total">   14.34   14.36</time>
   <energy>
    <i name="e_fr_energy">   -411.69064409 </i>
    <i name="e_wo_entrp">   -411.66477095 </i>
    <i name="e_0_energy">   -411.67770752 </i>
   </energy>
  </scstep>
  <scstep>
   <time name="diag">    2.95    2.95</time>
   <time name="diis">    9.21    9.22</time>
   <time name="orth">    0.54    0.54</time>
   <time name="total">   13.69   13.71</time>
   <energy>
    <i name="e_fr_energy">   -411.67828215 </i>
    <i name="e_wo_entrp">   -411.65217456 </i>
    <i name="e_0_energy">   -411.66522835 </i>
   </energy>
  </scstep>
  <scstep>
   <time name="diag">    2.94    2.94</time>
   <time name="diis">    8.61    8.61</time>
   <time name="orth">    0.54    0.54</time>
   <time name="total">   13.07   13.09</time>
   <energy>
    <i name="e_fr_energy">   -411.69969913 </i>
    <i name="e_wo_entrp">   -411.67343678 </i>
    <i name="e_0_energy">   -411.68656795 </i>
   </energy>
  </scstep>
  <scstep>
   <time name="diag">    2.94    2.94</time>
   <time name="diis">    8.02    8.02</time>
   <time name="orth">    0.54    0.54</time>
   <time name="total">   12.48   12.49</time>
   <energy>
    <i name="e_fr_energy">   -411.72808086 </i>
    <i name="e_wo_entrp">   -411.70176185 </i>
    <i name="e_0_energy">   -411.71492136 </i>
   </energy>
  </scstep>
  <scstep>
   <time name="diag">    2.94    2.94</time>
   <time name="diis">    7.72    7.72</time>
   <time name="orth">    0.54    0.54</time>
   <time name="total">   12.19   12.20</time>
   <energy>
    <i name="e_fr_energy">   -411.76410128 </i>
    <i name="e_wo_entrp">   -411.73777633 </i>
    <i name="e_0_energy">   -411.75093881 </i>
   </energy>
  </scstep>
  <scstep>
   <time name="diag">    2.96    2.96</time>
   <time name="diis">    7.68    7.68</time>
   <time name="orth">    0.54    0.54</time>
   <time name="total">   12.17   12.19</time>
   <energy>
    <i name="e_fr_energy">   -411.79157242 </i>
    <i name="e_wo_entrp">   -411.76520787 </i>
    <i name="e_0_energy">   -411.77839014 </i>
   </energy>
  </scstep>
  <scstep>
   <time name="diag">    2.95    2.95</time>
   <time name="diis">    8.00    8.00</time>
   <time name="orth">    0.54    0.54</time>
   <time name="total">   12.48   12.50</time>
   <energy>
    <i name="e_fr_energy">   -411.82117134 </i>
    <i name="e_wo_entrp">   -411.79470471 </i>
    <i name="e_0_energy">   -411.80793802 </i>
   </energy>
  </scstep>
  <scstep>
   <time name="diag">    2.96    2.96</time>
   <time name="diis">    7.70    7.70</time>
   <time name="orth">    0.54    0.54</time>
   <time name="total">   12.19   14.83</time>
   <energy>
    <i name="e_fr_energy">   -411.83542292 </i>
    <i name="e_wo_entrp">   -411.80888996 </i>
    <i name="e_0_energy">   -411.82215644 </i>
   </energy>
  </scstep>
  <scstep>
   <time name="diag">    2.96    2.96</time>
   <time name="diis">    7.31    7.32</time>
   <time name="orth">    0.54    0.54</time>
   <time name="total">   11.80   11.82</time>
   <energy>
    <i name="e_fr_energy">   -411.84653864 </i>
    <i name="e_wo_entrp">   -411.81999946 </i>
    <i name="e_0_energy">   -411.83326905 </i>
   </energy>
  </scstep>
  <scstep>
   <time name="diag">    2.96    2.96</time>
   <time name="diis">    6.82    6.83</time>
   <time name="orth">    0.54    0.54</time>
   <time name="total">   11.32   11.33</time>
   <energy>
    <i name="e_fr_energy">   -411.85229276 </i>
    <i name="e_wo_entrp">   -411.82576950 </i>
    <i name="e_0_energy">   -411.83903113 </i>
   </energy>
  </scstep>
  <scstep>
   <time name="diag">    2.94    2.94</time>
   <time name="diis">    6.01    6.01</time>
   <time name="orth">    0.54    0.54</time>
   <time name="total">   10.47   10.48</time>
   <energy>
    <i name="e_fr_energy">   -411.85345204 </i>
    <i name="e_wo_entrp">   -411.82693860 </i>
    <i name="e_0_energy">   -411.84019532 </i>
   </energy>
  </scstep>
  <scstep>
   <time name="diag">    2.95    2.95</time>
   <time name="diis">    5.46    5.46</time>
   <time name="orth">    0.54    0.54</time>
   <time name="total">    9.93   10.18</time>
   <energy>
    <i name="e_fr_energy">   -411.85371408 </i>
    <i name="e_wo_entrp">   -411.82720078 </i>
    <i name="e_0_energy">   -411.84045743 </i>
   </energy>
  </scstep>
  <scstep>
   <time name="diag">    2.93    2.93</time>
   <time name="diis">    5.27    5.27</time>
   <time name="orth">    0.54    0.54</time>
   <time name="total">    9.72    9.73</time>
   <energy>
    <i name="e_fr_energy">   -411.85385713 </i>
    <i name="e_wo_entrp">   -411.82734400 </i>
    <i name="e_0_energy">   -411.84060057 </i>
   </energy>
  </scstep>
  <scstep>
   <time name="diag">    2.95    2.95</time>
   <time name="diis">    5.01    5.01</time>
   <time name="orth">    0.54    0.54</time>
   <time name="total">    8.85    8.86</time>
   <energy>
    <i name="alphaZ">    826.07524987 </i>
    <i name="ewald">  50164.08087601 </i>
    <i name="hartreedc"> -67664.13760330 </i>
    <i name="XCdc">    -55.83847632 </i>
    <i name="pawpsdc">  25301.53545926 </i>
    <i name="pawaedc"> -24255.27298970 </i>
    <i name="eentropy">     -0.02651029 </i>
    <i name="bandstr">  -2043.93007881 </i>
    <i name="atom">  17315.66014183 </i>
    <i name="e_fr_energy">   -411.85393144 </i>
    <i name="e_wo_entrp">   -411.82742115 </i>
    <i name="e_0_energy">   -411.84067629 </i>
   </energy>
  </scstep>
  <structure>
   <crystal>
    <varray name="basis" >
     <v>       0.00000000       0.00000000       5.45982775 </v>
     <v>       4.93807595      -4.93807595       0.00000000 </v>
     <v>      16.62644229      16.62644229       0.00000000 </v>
    </varray>
    <i name="volume">    896.53248773 </i>
    <varray name="rec_basis" >
     <v>       0.00000000       0.00000000       0.18315596 </v>
     <v>       0.10125401      -0.10125401       0.00000000 </v>
     <v>       0.03007258       0.03007258       0.00000000 </v>
    </varray>
   </crystal>
   <varray name="positions" >
    <v>       0.13081166       0.56969810       0.00000000 </v>
    <v>       0.63081166       0.56969810       0.00000000 </v>
    <v>       0.38081166       0.28721810       0.06460374 </v>
    <v>       0.88081166       0.28721810       0.06460374 </v>
    <v>       0.38081166       0.85217810       0.06460374 </v>
    <v>       0.88081166       0.85217810       0.06460374 </v>
    <v>       0.13081166       0.56969810       0.12920747 </v>
    <v>       0.63081166       0.56969810       0.12920747 </v>
    <v>       0.13081166       0.06969810       0.14850068 </v>
    <v>       0.63081166       0.06969810       0.14850068 </v>
    <v>       0.38081166       0.35217810       0.21310441 </v>
    <v>       0.88081166       0.35217810       0.21310441 </v>
    <v>       0.38081166       0.78721810       0.21310441 </v>
    <v>       0.88081166       0.78721810       0.21310441 </v>
    <v>       0.13081166       0.06969810       0.27770815 </v>
    <v>       0.63081166       0.06969810       0.27770815 </v>
    <v>       0.13081166       0.56969810       0.29700136 </v>
    <v>       0.63081166       0.56969810       0.29700136 </v>
    <v>       0.38081166       0.28721810       0.36160509 </v>
    <v>       0.88081166       0.28721810       0.36160509 </v>
    <v>       0.38081166       0.85217810       0.36160509 </v>
    <v>       0.88081166       0.85217810       0.36160509 </v>
    <v>       0.13081166       0.56969810       0.42620883 </v>
    <v>       0.63081166       0.56969810       0.42620883 </v>
    <v>       0.13081166       0.06969810       0.44550204 </v>
    <v>       0.63081166       0.06969810       0.44550204 </v>
    <v>       0.38081166       0.35217810       0.51010577 </v>
    <v>       0.88081166       0.35217810       0.51010577 </v>
    <v>       0.38081166       0.78721810       0.51010577 </v>
    <v>       0.88081166       0.78721810       0.51010577 </v>
    <v>       0.13081166       0.06969810       0.57470951 </v>
    <v>       0.63081166       0.06969810       0.57470951 </v>
    <v>       0.13081166       0.06969810       0.06460374 </v>
    <v>       0.63081166       0.06969810       0.06460374 </v>
    <v>       0.38081166       0.56969810       0.06460374 </v>
    <v>       0.88081166       0.56969810       0.06460374 </v>
    <v>       0.38081166       0.06969810       0.21310441 </v>
    <v>       0.88081166       0.06969810       0.21310441 </v>
    <v>       0.13081166       0.56969810       0.21310441 </v>
    <v>       0.63081166       0.56969810       0.21310441 </v>
    <v>       0.13081166       0.06969810       0.36160509 </v>
    <v>       0.63081166       0.06969810       0.36160509 </v>
    <v>       0.38081166       0.56969810       0.36160509 </v>
    <v>       0.88081166       0.56969810       0.36160509 </v>
    <v>       0.38081166       0.06969810       0.51010577 </v>
    <v>       0.88081166       0.06969810       0.51010577 </v>
    <v>       0.13081166       0.56969810       0.51010577 </v>
    <v>       0.63081166       0.56969810       0.51010577 </v>
   </varray>
  </structure>
  <varray name="forces" >
   <v>       1.90694506       1.90529565      -0.00161245 </v>
   <v>       1.90704601       1.90539890      -0.00158058 </v>
   <v>      -0.42837280      -0.03989157       0.00251381 </v>
   <v>      -0.42839792      -0.03986668       0.00304904 </v>
   <v>      -0.04090294      -0.43068345      -0.00234593 </v>
   <v>      -0.04088263      -0.43070772      -0.00181111 </v>
   <v>       0.22805236       0.22827957       0.00180592 </v>
   <v>       0.22808312       0.22830964       0.00173997 </v>
   <v>      -0.84554891      -0.84492190       0.00244946 </v>
   <v>      -0.84529333      -0.84466608       0.00254608 </v>
   <v>       0.02732008      -0.05900017      -0.00142887 </v>
   <v>       0.02727921      -0.05895880      -0.00152902 </v>
   <v>      -0.05958154       0.02487134       0.00247984 </v>
   <v>      -0.05953381       0.02482550       0.00238116 </v>
   <v>      -0.11904375      -0.12009648      -0.00225203 </v>
   <v>      -0.11905038      -0.12010421      -0.00212857 </v>
   <v>       0.11941533       0.12089655       0.00010255 </v>
   <v>       0.11949081       0.12097249       0.00008291 </v>
   <v>      -0.02469090       0.05969442      -0.00059725 </v>
   <v>      -0.02470276       0.05968361      -0.00091909 </v>
   <v>       0.06326229      -0.02342696      -0.00044913 </v>
   <v>       0.06325332      -0.02344261      -0.00077146 </v>
   <v>       0.83871243       0.83949880       0.00180203 </v>
   <v>       0.83821658       0.83900093       0.00179836 </v>
   <v>      -0.22353489      -0.22310496       0.00039896 </v>
   <v>      -0.22366645      -0.22323505       0.00034795 </v>
   <v>       0.42910377       0.03830722      -0.00115132 </v>
   <v>       0.42912660       0.03828122      -0.00028886 </v>
   <v>       0.03675187       0.42514165      -0.00128016 </v>
   <v>       0.03672840       0.42516743      -0.00042155 </v>
   <v>      -1.90467587      -1.90384788       0.00022272 </v>
   <v>      -1.90480226      -1.90397433       0.00015357 </v>
   <v>       1.67463718       1.67253497      -0.00004425 </v>
   <v>       1.67451075       1.67240859      -0.00005097 </v>
   <v>      -2.50202072      -2.49965037       0.00063454 </v>
   <v>      -2.50208469      -2.49971527       0.00050998 </v>
   <v>       0.01781640       0.01997572       0.00109362 </v>
   <v>       0.01779734       0.01995647       0.00102967 </v>
   <v>      -0.01125596      -0.01380848       0.00006220 </v>
   <v>      -0.01140699      -0.01396295       0.00016354 </v>
   <v>       0.01692854       0.01582359      -0.00006320 </v>
   <v>       0.01721282       0.01610656      -0.00020169 </v>
   <v>      -0.02128697      -0.01747168      -0.00035423 </v>
   <v>      -0.02131873      -0.01750260      -0.00045622 </v>
   <v>       2.49827171       2.50233288      -0.00201229 </v>
   <v>       2.49820140       2.50226313      -0.00173873 </v>
   <v>      -1.67620008      -1.67663805      -0.00094916 </v>
   <v>      -1.67590809      -1.67634855      -0.00092975 </v>
  </varray>
  <varray name="stress" >
   <v>     -18.46136790     -25.42964471       0.03036200 </v>
   <v>     -25.42964469     -18.46543993      -0.01801697 </v>
   <v>       0.03036208      -0.01801685      -4.48491532 </v>
  </varray>
  <energy>
   <i name="e_fr_energy">   -421.96423453 </i>
   <i name="e_wo_entrp">   -421.95097939 </i>
   <i name="e_0_energy">     -0.02651029 </i>
  </energy>
  <time name="totalsc">  580.79  585.69</time>
 </calculation>
 <calculation>
  <scstep>
   <time name="dav">   17.49   17.49</time>
   <time name="total">   18.48   18.48</time>
   <energy>
    <i name="alphaZ">    826.07524987 </i>
    <i name="ewald">  50192.14223955 </i>
    <i name="hartreedc"> -67689.55520379 </i>
    <i name="XCdc">    -55.70072439 </i>
    <i name="pawpsdc">  25301.52201242 </i>
    <i name="pawaedc"> -24255.25945932 </i>
    <i name="eentropy">     -0.02382872 </i>
    <i name="bandstr">  -2047.13837414 </i>
    <i name="atom">  17315.66014183 </i>
    <i name="e_fr_energy">   -412.27794671 </i>
    <i name="e_wo_entrp">   -412.25411798 </i>
    <i name="e_0_energy">   -412.26603234 </i>
   </energy>
  </scstep>
  <scstep>
   <time name="diag">    2.95    2.95</time>
   <time name="diis">   10.27   10.27</time>
   <time name="orth">    0.54    0.54</time>
   <time name="total">   14.73   14.96</time>
   <energy>
    <i name="e_fr_energy">   -412.56147903 </i>
    <i name="e_wo_entrp">   -412.52757367 </i>
    <i name="e_0_energy">   -412.54452635 </i>
   </energy>
  </scstep>
  <scstep>
   <time name="diag">    2.95    2.95</time>
   <time name="diis">   10.33   10.33</time>
   <time name="orth">    0.54    0.54</time>
   <time name="total">   14.79   15.16</time>
   <energy>
    <i name="e_fr_energy">   -412.30018927 </i>
    <i name="e_wo_entrp">   -412.27366480 </i>
    <i name="e_0_energy">   -412.28692704 </i>
   </energy>
  </scstep>
  <scstep>
   <time name="diag">    2.95    2.95</time>
   <time name="diis">   10.23   10.23</time>
   <time name="orth">    0.54    0.54</time>
   <time name="total">   14.70   14.71</time>
   <energy>
    <i name="e_fr_energy">   -412.37152108 </i>
    <i name="e_wo_entrp">   -412.35044296 </i>
    <i name="e_0_energy">   -412.36098202 </i>
   </energy>
  </scstep>
  <scstep>
   <time name="diag">    2.95    2.95</time>
   <time name="diis">   10.25   10.25</time>
   <time name="orth">    0.54    0.54</time>
   <time name="total">   14.71   14.84</time>
   <energy>
    <i name="e_fr_energy">   -412.30365676 </i>
    <i name="e_wo_entrp">   -412.27655609 </i>
    <i name="e_0_energy">   -412.29010642 </i>
   </energy>
  </scstep>
  <scstep>
   <time name="diag">    2.94    2.94</time>
   <time name="diis">   10.25   10.25</time>
   <time name="orth">    0.54    0.54</time>
   <time name="total">   14.70   14.71</time>
   <energy>
    <i name="e_fr_energy">   -412.29533674 </i>
    <i name="e_wo_entrp">   -412.26984474 </i>
    <i name="e_0_energy">   -412.28259074 </i>
   </energy>
  </scstep>
  <scstep>
   <time name="diag">    2.94    2.94</time>
   <time name="diis">   10.26   10.26</time>
   <time name="orth">    0.54    0.54</time>
   <time name="total">   14.71   14.72</time>
   <energy>
    <i name="e_fr_energy">   -412.28201990 </i>
    <i name="e_wo_entrp">   -412.25658984 </i>
    <i name="e_0_energy">   -412.26930487 </i>
   </energy>
  </scstep>
  <scstep>
   <time name="diag">    2.94    2.94</time>
   <time name="diis">    9.77    9.78</time>
   <time name="orth">    0.54    0.54</time>
   <time name="total">   14.23   14.24</time>
   <energy>
    <i name="e_fr_energy">   -412.28188937 </i>
    <i name="e_wo_entrp">   -412.25690109 </i>
    <i name="e_0_energy">   -412.26939523 </i>
   </energy>
  </scstep>
  <scstep>
   <time name="diag">    2.94    2.94</time>
   <time name="diis">    9.31    9.32</time>
   <time name="orth">    0.54    0.54</time>
   <time name="total">   13.77   13.94</time>
   <energy>
    <i name="e_fr_energy">   -412.28357971 </i>
    <i name="e_wo_entrp">   -412.25883024 </i>
    <i name="e_0_energy">   -412.27120498 </i>
   </energy>
  </scstep>
  <scstep>
   <time name="diag">    2.95    2.95</time>
   <time name="diis">    8.29    8.30</time>
   <time name="orth">    0.54    0.54</time>
   <time name="total">   12.76   13.10</time>
   <energy>
    <i name="e_fr_energy">   -412.28489425 </i>
    <i name="e_wo_entrp">   -412.26001051 </i>
    <i name="e_0_energy">   -412.27245238 </i>
   </energy>
  </scstep>
  <scstep>
   <time name="diag">    2.94    2.94</time>
   <time name="diis">    7.50    7.50</time>
   <time name="orth">    0.54    0.54</time>
   <time name="total">   11.96   11.97</time>
   <energy>
    <i name="e_fr_energy">   -412.28551312 </i>
    <i name="e_wo_entrp">   -412.26066488 </i>
    <i name="e_0_energy">   -412.27308900 </i>
   </energy>
  </scstep>
  <scstep>
   <time name="diag">    2.94    2.95</time>
   <time name="diis">    7.00    7.00</time>
   <time name="orth">    0.54    0.54</time>
   <time name="total">   11.46   11.61</time>
   <energy>
    <i name="e_fr_energy">   -412.28393487 </i>
    <i name="e_wo_entrp">   -412.25913881 </i>
    <i name="e_0_energy">   -412.27153684 </i>
   </energy>
  </scstep>
  <scstep>
   <time name="diag">    2.95    2.95</time>
   <time name="diis">    6.81    6.81</time>
   <time name="orth">    0.54    0.54</time>
   <time name="total">   11.27   11.29</time>
   <energy>
    <i name="e_fr_energy">   -412.28034561 </i>
    <i name="e_wo_entrp">   -412.25546629 </i>
    <i name="e_0_energy">   -412.26790595 </i>
   </energy>
  </scstep>
  <scstep>
   <time name="diag">    2.94    2.95</time>
   <time name="diis">    6.40    6.40</time>
   <time name="orth">    0.54    0.54</time>
   <time name="total">   10.86   10.87</time>
   <energy>
    <i name="e_fr_energy">   -412.27832691 </i>
    <i name="e_wo_entrp">   -412.25340557 </i>
    <i name="e_0_energy">   -412.26586624 </i>
   </energy>
  </scstep>
  <scstep>
   <time name="diag">    2.95    2.96</time>
   <time name="diis">    6.25    6.26</time>
   <time name="orth">    0.54    0.54</time>
   <time name="total">   10.73   10.75</time>
   <energy>
    <i name="e_fr_energy">   -412.27734214 </i>
    <i name="e_wo_entrp">   -412.25238977 </i>
    <i name="e_0_energy">   -412.26486596 </i>
   </energy>
  </scstep>
  <scstep>
   <time name="diag">    2.96    2.97</time>
   <time name="diis">    6.11    6.11</time>
   <time name="orth">    0.54    0.54</time>
   <time name="total">   10.60   10.61</time>
   <energy>
    <i name="e_fr_energy">   -412.27958578 </i>
    <i name="e_wo_entrp">   -412.25455269 </i>
    <i name="e_0_energy">   -412.26706923 </i>
   </energy>
  </scstep>
  <scstep>
   <time name="diag">    2.95    2.95</time>
   <time name="diis">    6.07    6.07</time>
   <time name="orth">    0.54    0.54</time>
   <time name="total">   10.54   10.56</time>
   <energy>
    <i name="e_fr_energy">   -412.28159963 </i>
    <i name="e_wo_entrp">   -412.25650887 </i>
    <i name="e_0_energy">   -412.26905425 </i>
   </energy>
  </scstep>
  <scstep>
   <time name="diag">    2.95    2.95</time>
   <time name="diis">    6.41    6.42</time>
   <time name="orth">    0.54    0.54</time>
   <time name="total">   10.89   11.07</time>
   <energy>
    <i name="e_fr_energy">   -412.28411570 </i>
    <i name="e_wo_entrp">   -412.25893706 </i>
    <i name="e_0_energy">   -412.27152638 </i>
   </energy>
  </scstep>
  <scstep>
   <time name="diag">    2.95    2.95</time>
   <time name="diis">    6.03    6.03</time>
   <time name="orth">    0.54    0.54</time>
   <time name="total">   10.50   10.51</time>
   <energy>
    <i name="e_fr_energy">   -412.28588896 </i>
    <i name="e_wo_entrp">   -412.26065835 </i>
    <i name="e_0_energy">   -412.27327365 </i>
   </energy>
  </scstep>
  <scstep>
   <time name="diag">    2.95    2.95</time>
   <time name="diis">    5.95    5.95</time>
   <time name="orth">    0.54    0.54</time>
   <time name="total">   10.42   10.43</time>
   <energy>
    <i name="e_fr_energy">   -412.28729725 </i>
    <i name="e_wo_entrp">   -412.26206532 </i>
    <i name="e_0_energy">   -412.27468129 </i>
   </energy>
  </scstep>
  <scstep>
   <time name="diag">    2.95    2.95</time>
   <time name="diis">    5.64    5.64</time>
   <time name="orth">    0.54    0.54</time>
   <time name="total">   10.12   10.13</time>
   <energy>
    <i name="e_fr_energy">   -412.28807232 </i>
    <i name="e_wo_entrp">   -412.26282775 </i>
    <i name="e_0_energy">   -412.27545003 </i>
   </energy>
  </scstep>
  <scstep>
   <time name="diag">    2.94    2.94</time>
   <time name="diis">    5.19    5.19</time>
   <time name="orth">    0.54    0.54</time>
   <time name="total">    9.66    9.83</time>
   <energy>
    <i name="e_fr_energy">   -412.28819801 </i>
    <i name="e_wo_entrp">   -412.26293150 </i>
    <i name="e_0_energy">   -412.27556476 </i>
   </energy>
  </scstep>
  <scstep>
   <time name="diag">    2.94    2.94</time>
   <time name="diis">    4.86    4.86</time>
   <time name="orth">    0.54    0.54</time>
   <time name="total">    8.68    8.69</time>
   <energy>
    <i name="alphaZ">    826.07524987 </i>
    <i name="ewald">  50192.14223955 </i>
    <i name="hartreedc"> -67699.76522909 </i>
    <i name="XCdc">    -55.62144610 </i>
    <i name="pawpsdc">  25374.78578686 </i>
    <i name="pawaedc"> -24328.66059407 </i>
    <i name="eentropy">     -0.02525096 </i>
    <i name="bandstr">  -2036.87904277 </i>
    <i name="atom">  17315.66014183 </i>
    <i name="e_fr_energy">   -412.28814489 </i>
    <i name="e_wo_entrp">   -412.26289392 </i>
    <i name="e_0_energy">   -412.27551941 </i>
   </energy>
  </scstep>
  <structure>
   <crystal>
    <varray name="basis" >
     <v>       0.00000000       0.00000000       5.45982775 </v>
     <v>       4.93807595      -4.93807595       0.00000000 </v>
     <v>      16.62644229      16.62644229       0.00000000 </v>
    </varray>
    <i name="volume">    896.53248773 </i>
    <varray name="rec_basis" >
     <v>       0.00000000       0.00000000       0.18315596 </v>
     <v>       0.10125401      -0.10125401       0.00000000 </v>
     <v>       0.03007258       0.03007258       0.00000000 </v>
    </varray>
   </crystal>
   <varray name="positions" >
    <v>       0.13081166       0.56969810       0.00000000 </v>
    <v>       0.63081166       0.56969810       0.00000000 </v>
    <v>       0.38081166       0.28721810       0.06460374 </v>
    <v>       0.88081166       0.28721810       0.06460374 </v>
    <v>       0.38081166       0.85217810       0.06460374 </v>
    <v>       0.88081166       0.85217810       0.06460374 </v>
    <v>       0.13081166       0.56969810       0.12920747 </v>
    <v>       0.63081166       0.56969810       0.12920747 </v>
    <v>       0.13081166       0.06969810       0.14850068 </v>
    <v>       0.63081166       0.06969810       0.14850068 </v>
    <v>       0.38081166       0.35217810       0.21310441 </v>
    <v>       0.88081166       0.35217810       0.21310441 </v>
    <v>       0.38081166       0.78721810       0.21310441 </v>
    <v>       0.88081166       0.78721810       0.21310441 </v>
    <v>       0.13081166       0.06969810       0.27770815 </v>
    <v>       0.63081166       0.06969810       0.27770815 </v>
    <v>       0.13081184       0.56969665       0.29707109 </v>
    <v>       0.63081181       0.56969665       0.29707113 </v>
    <v>       0.38081061       0.28713565       0.36161525 </v>
    <v>       0.88081004       0.28713565       0.36161524 </v>
    <v>       0.38081087       0.85226279       0.36161665 </v>
    <v>       0.88081030       0.85226279       0.36161665 </v>
    <v>       0.13081485       0.56969733       0.42669577 </v>
    <v>       0.63081484       0.56969733       0.42669548 </v>
    <v>       0.13081237       0.06969768       0.44537244 </v>
    <v>       0.63081228       0.06969767       0.44537237 </v>
    <v>       0.38080963       0.35255988       0.51024140 </v>
    <v>       0.88081115       0.35255993       0.51024139 </v>
    <v>       0.38080940       0.78683866       0.51023979 </v>
    <v>       0.88081092       0.78683861       0.51023980 </v>
    <v>       0.13081206       0.06969729       0.57360444 </v>
    <v>       0.63081193       0.06969729       0.57360437 </v>
    <v>       0.13081166       0.06969810       0.06460374 </v>
    <v>       0.63081166       0.06969810       0.06460374 </v>
    <v>       0.38081166       0.56969810       0.06460374 </v>
    <v>       0.88081166       0.56969810       0.06460374 </v>
    <v>       0.38081166       0.06969810       0.21310441 </v>
    <v>       0.88081166       0.06969810       0.21310441 </v>
    <v>       0.13081166       0.56969810       0.21310441 </v>
    <v>       0.63081166       0.56969810       0.21310441 </v>
    <v>       0.13081155       0.06969917       0.36161460 </v>
    <v>       0.63081131       0.06969918       0.36161476 </v>
    <v>       0.38081104       0.56969437       0.36159385 </v>
    <v>       0.88081086       0.56969437       0.36159383 </v>
    <v>       0.38080811       0.06969413       0.51155673 </v>
    <v>       0.88080859       0.06969413       0.51155669 </v>
    <v>       0.13080998       0.56969852       0.50913293 </v>
    <v>       0.63081002       0.56969853       0.50913310 </v>
   </varray>
  </structure>
  <varray name="forces" >
   <v>       1.90664885       1.90529980      -0.00181071 </v>
   <v>       1.90679809       1.90544962      -0.00181607 </v>
   <v>      -0.43059366      -0.04087775       0.00214414 </v>
   <v>      -0.43059545      -0.04087569       0.00298888 </v>
   <v>      -0.04218727      -0.43260995      -0.00270915 </v>
   <v>      -0.04218831      -0.43260883      -0.00186647 </v>
   <v>       0.24297470       0.24350232       0.00156650 </v>
   <v>       0.24293749       0.24346590       0.00156374 </v>
   <v>      -0.86054970      -0.85962404       0.00228652 </v>
   <v>      -0.86011000      -0.85918410       0.00228401 </v>
   <v>       0.03215773      -0.05760927      -0.00169487 </v>
   <v>       0.03215950      -0.05761041      -0.00168636 </v>
   <v>      -0.05848766       0.03003812       0.00221152 </v>
   <v>      -0.05848843       0.03003965       0.00222087 </v>
   <v>      -0.13615025      -0.13694300      -0.00239531 </v>
   <v>      -0.13628026      -0.13707386      -0.00239890 </v>
   <v>       0.17175870       0.17300394      -0.00022933 </v>
   <v>       0.17195113       0.17319695      -0.00022138 </v>
   <v>      -0.00579325       0.03051413      -0.00107008 </v>
   <v>      -0.00580080       0.03052235      -0.00096969 </v>
   <v>       0.03356039      -0.00396833      -0.00026232 </v>
   <v>       0.03356745      -0.00397382      -0.00016376 </v>
   <v>       0.60813554       0.60894276      -0.00003825 </v>
   <v>       0.60809036       0.60889830      -0.00003082 </v>
   <v>       0.03371696       0.03294587       0.00069811 </v>
   <v>       0.03370223       0.03293272       0.00070733 </v>
   <v>       0.42369679       0.12430831      -0.00126328 </v>
   <v>       0.42368333       0.12432015      -0.00073241 </v>
   <v>       0.12395101       0.42057577       0.00013445 </v>
   <v>       0.12396053       0.42056437       0.00065983 </v>
   <v>      -1.12954393      -1.12945655       0.00219283 </v>
   <v>      -1.12965375      -1.12956610       0.00220389 </v>
   <v>       1.68318025       1.68138241      -0.00026241 </v>
   <v>       1.68301033       1.68121256      -0.00026184 </v>
   <v>      -2.50661480      -2.50393883       0.00049425 </v>
   <v>      -2.50661283      -2.50393928       0.00021256 </v>
   <v>       0.03711128       0.03957325       0.00106309 </v>
   <v>       0.03711256       0.03957499       0.00060269 </v>
   <v>      -0.04001724      -0.04227411      -0.00011012 </v>
   <v>      -0.04037734      -0.04263627      -0.00010719 </v>
   <v>       0.21449609       0.21451512      -0.00050267 </v>
   <v>       0.21455171       0.21457060      -0.00051600 </v>
   <v>      -0.14053737      -0.13783119      -0.00047466 </v>
   <v>      -0.14052099      -0.13788646      -0.00090909 </v>
   <v>       1.30975118       1.31271106      -0.00002554 </v>
   <v>       1.30974829       1.31270753      -0.00115684 </v>
   <v>      -1.47059621      -1.47207946      -0.00027269 </v>
   <v>      -1.47071298      -1.47220123      -0.00027700 </v>
  </varray>
  <varray name="stress" >
   <v>     -16.08312957     -23.22466294       0.02385789 </v>
   <v>     -23.22466293     -16.07518580      -0.03292951 </v>
   <v>       0.02385780      -0.03292936      -2.26329066 </v>
  </varray>
  <energy>
   <i name="e_fr_energy">   -422.39654539 </i>
   <i name="e_wo_entrp">   -422.38391991 </i>
   <i name="e_0_energy">     -0.02525096 </i>
  </energy>
  <time name="totalsc">  306.26  308.19</time>
 </calculation>
 <calculation>
  <scstep>
   <time name="dav">   17.39   17.40</time>
   <time name="total">   18.37   18.39</time>
   <energy>
    <i name="alphaZ">    826.07524987 </i>
    <i name="ewald">  50233.03039130 </i>
    <i name="hartreedc"> -67735.83099552 </i>
    <i name="XCdc">    -55.42501164 </i>
    <i name="pawpsdc">  25374.78840098 </i>
    <i name="pawaedc"> -24328.66330262 </i>
    <i name="eentropy">     -0.02039196 </i>
    <i name="bandstr">  -2042.13437260 </i>
    <i name="atom">  17315.66014183 </i>
    <i name="e_fr_energy">   -412.51989035 </i>
    <i name="e_wo_entrp">   -412.49949840 </i>
    <i name="e_0_energy">   -412.50969437 </i>
   </energy>
  </scstep>
  <scstep>
   <time name="diag">    2.94    2.94</time>
   <time name="diis">   10.28   10.28</time>
   <time name="orth">    0.54    0.54</time>
   <time name="total">   14.74   14.76</time>
   <energy>
    <i name="e_fr_energy">   -413.20941124 </i>
    <i name="e_wo_entrp">   -413.17975798 </i>
    <i name="e_0_energy">   -413.19458461 </i>
   </energy>
  </scstep>
  <scstep>
   <time name="diag">    2.95    2.95</time>
   <time name="diis">   10.32   10.33</time>
   <time name="orth">    0.54    0.54</time>
   <time name="total">   14.79   14.81</time>
   <energy>
    <i name="e_fr_energy">   -412.58327971 </i>
    <i name="e_wo_entrp">   -412.55326310 </i>
    <i name="e_0_energy">   -412.56827141 </i>
   </energy>
  </scstep>
  <scstep>
   <time name="diag">    2.94    2.95</time>
   <time name="diis">   10.25   10.25</time>
   <time name="orth">    0.54    0.54</time>
   <time name="total">   14.71   14.73</time>
   <energy>
    <i name="e_fr_energy">   -412.83806590 </i>
    <i name="e_wo_entrp">   -412.81478420 </i>
    <i name="e_0_energy">   -412.82642505 </i>
   </energy>
  </scstep>
  <scstep>
   <time name="diag">    2.94    2.94</time>
   <time name="diis">   10.25   10.25</time>
   <time name="orth">    0.54    0.54</time>
   <time name="total">   14.71   14.73</time>
   <energy>
    <i name="e_fr_energy">   -412.63354637 </i>
    <i name="e_wo_entrp">   -412.60358160 </i>
    <i name="e_0_energy">   -412.61856399 </i>
   </energy>
  </scstep>
  <scstep>
   <time name="diag">    2.94    2.94</time>
   <time name="diis">   10.27   10.27</time>
   <time name="orth">    0.54    0.54</time>
   <time name="total">   14.73   14.74</time>
   <energy>
    <i name="e_fr_energy">   -412.57908306 </i>
    <i name="e_wo_entrp">   -412.55370735 </i>
    <i name="e_0_energy">   -412.56639520 </i>
   </energy>
  </scstep>
  <scstep>
   <time name="diag">    2.94    2.94</time>
   <time name="diis">   10.24   10.24</time>
   <time name="orth">    0.54    0.54</time>
   <time name="total">   14.70   14.71</time>
   <energy>
    <i name="e_fr_energy">   -412.53080492 </i>
    <i name="e_wo_entrp">   -412.50618005 </i>
    <i name="e_0_energy">   -412.51849249 </i>
   </energy>
  </scstep>
  <scstep>
   <time name="diag">    2.95    2.95</time>
   <time name="diis">   10.33   10.33</time>
   <time name="orth">    0.54    0.54</time>
   <time name="total">   14.80   15.09</time>
   <energy>
    <i name="e_fr_energy">   -412.52978409 </i>
    <i name="e_wo_entrp">   -412.50478677 </i>
    <i name="e_0_energy">   -412.51728543 </i>
   </energy>
  </scstep>
  <scstep>
   <time name="diag">    2.94    2.94</time>
   <time name="diis">    9.90    9.91</time>
   <time name="orth">    0.54    0.54</time>
   <time name="total">   14.35   14.62</time>
   <energy>
    <i name="e_fr_energy">   -412.52957281 </i>
    <i name="e_wo_entrp">   -412.50514508 </i>
    <i name="e_0_energy">   -412.51735894 </i>
   </energy>
  </scstep>
  <scstep>
   <time name="diag">    2.94    2.94</time>
   <time name="diis">    9.62    9.63</time>
   <time name="orth">    0.54    0.54</time>
   <time name="total">   14.08   14.09</time>
   <energy>
    <i name="e_fr_energy">   -412.53070033 </i>
    <i name="e_wo_entrp">   -412.50643379 </i>
    <i name="e_0_energy">   -412.51856706 </i>
   </energy>
  </scstep>
  <scstep>
   <time name="diag">    2.94    2.94</time>
   <time name="diis">    9.24    9.25</time>
   <time name="orth">    0.54    0.54</time>
   <time name="total">   13.70   13.72</time>
   <energy>
    <i name="e_fr_energy">   -412.53141164 </i>
    <i name="e_wo_entrp">   -412.50737730 </i>
    <i name="e_0_energy">   -412.51939447 </i>
   </energy>
  </scstep>
  <scstep>
   <time name="diag">    2.94    2.94</time>
   <time name="diis">    7.68    7.69</time>
   <time name="orth">    0.54    0.54</time>
   <time name="total">   12.14   12.15</time>
   <energy>
    <i name="e_fr_energy">   -412.52990845 </i>
    <i name="e_wo_entrp">   -412.50582509 </i>
    <i name="e_0_energy">   -412.51786677 </i>
   </energy>
  </scstep>
  <scstep>
   <time name="diag">    2.94    2.94</time>
   <time name="diis">    7.01    7.01</time>
   <time name="orth">    0.54    0.54</time>
   <time name="total">   11.47   11.48</time>
   <energy>
    <i name="e_fr_energy">   -412.52706500 </i>
    <i name="e_wo_entrp">   -412.50314074 </i>
    <i name="e_0_energy">   -412.51510287 </i>
   </energy>
  </scstep>
  <scstep>
   <time name="diag">    2.94    2.94</time>
   <time name="diis">    6.52    6.52</time>
   <time name="orth">    0.54    0.54</time>
   <time name="total">   10.97   10.98</time>
   <energy>
    <i name="e_fr_energy">   -412.52530112 </i>
    <i name="e_wo_entrp">   -412.50136181 </i>
    <i name="e_0_energy">   -412.51333147 </i>
   </energy>
  </scstep>
  <scstep>
   <time name="diag">    2.94    2.94</time>
   <time name="diis">    6.31    6.31</time>
   <time name="orth">    0.54    0.54</time>
   <time name="total">   10.76   10.77</time>
   <energy>
    <i name="e_fr_energy">   -412.52356955 </i>
    <i name="e_wo_entrp">   -412.49955852 </i>
    <i name="e_0_energy">   -412.51156403 </i>
   </energy>
  </scstep>
  <scstep>
   <time name="diag">    2.94    2.94</time>
   <time name="diis">    5.96    5.96</time>
   <time name="orth">    0.54    0.54</time>
   <time name="total">   10.42   10.43</time>
   <energy>
    <i name="e_fr_energy">   -412.52308986 </i>
    <i name="e_wo_entrp">   -412.49907732 </i>
    <i name="e_0_energy">   -412.51108359 </i>
   </energy>
  </scstep>
  <scstep>
   <time name="diag">    2.93    2.93</time>
   <time name="diis">    6.05    6.05</time>
   <time name="orth">    0.54    0.54</time>
   <time name="total">   10.50   10.51</time>
   <energy>
    <i name="e_fr_energy">   -412.52424075 </i>
    <i name="e_wo_entrp">   -412.50009869 </i>
    <i name="e_0_energy">   -412.51216972 </i>
   </energy>
  </scstep>
  <scstep>
   <time name="diag">    2.93    2.93</time>
   <time name="diis">    6.53    6.53</time>
   <time name="orth">    0.53    0.54</time>
   <time name="total">   10.98   11.00</time>
   <energy>
    <i name="e_fr_energy">   -412.52736417 </i>
    <i name="e_wo_entrp">   -412.50306848 </i>
    <i name="e_0_energy">   -412.51521632 </i>
   </energy>
  </scstep>
  <scstep>
   <time name="diag">    2.93    2.93</time>
   <time name="diis">    5.99    6.00</time>
   <time name="orth">    0.53    0.54</time>
   <time name="total">   10.44   10.46</time>
   <energy>
    <i name="e_fr_energy">   -412.52902816 </i>
    <i name="e_wo_entrp">   -412.50467201 </i>
    <i name="e_0_energy">   -412.51685008 </i>
   </energy>
  </scstep>
  <scstep>
   <time name="diag">    2.93    2.93</time>
   <time name="diis">    6.41    6.41</time>
   <time name="orth">    0.54    0.54</time>
   <time name="total">   10.85   11.05</time>
   <energy>
    <i name="e_fr_energy">   -412.53158617 </i>
    <i name="e_wo_entrp">   -412.50713402 </i>
    <i name="e_0_energy">   -412.51936010 </i>
   </energy>
  </scstep>
  <scstep>
   <time name="diag">    2.93    2.93</time>
   <time name="diis">    5.82    5.82</time>
   <time name="orth">    0.54    0.54</time>
   <time name="total">   10.27   10.28</time>
   <energy>
    <i name="e_fr_energy">   -412.53285139 </i>
    <i name="e_wo_entrp">   -412.50837400 </i>
    <i name="e_0_energy">   -412.52061270 </i>
   </energy>
  </scstep>
  <scstep>
   <time name="diag">    2.94    2.94</time>
   <time name="diis">    5.28    5.28</time>
   <time name="orth">    0.53    0.54</time>
   <time name="total">    9.73    9.87</time>
   <energy>
    <i name="e_fr_energy">   -412.53336248 </i>
    <i name="e_wo_entrp">   -412.50886303 </i>
    <i name="e_0_energy">   -412.52111275 </i>
   </energy>
  </scstep>
  <scstep>
   <time name="diag">    2.94    2.94</time>
   <time name="diis">    5.62    5.62</time>
   <time name="orth">    0.54    0.54</time>
   <time name="total">   10.07   10.08</time>
   <energy>
    <i name="e_fr_energy">   -412.53371779 </i>
    <i name="e_wo_entrp">   -412.50919746 </i>
    <i name="e_0_energy">   -412.52145762 </i>
   </energy>
  </scstep>
  <scstep>
   <time name="diag">    2.94    2.94</time>
   <time name="diis">    5.04    5.05</time>
   <time name="orth">    0.53    0.54</time>
   <time name="total">    8.87    9.13</time>
   <energy>
    <i name="alphaZ">    826.07524987 </i>
    <i name="ewald">  50233.03039130 </i>
    <i name="hartreedc"> -67750.63882662 </i>
    <i name="XCdc">    -55.30438156 </i>
    <i name="pawpsdc">  25524.23702772 </i>
    <i name="pawaedc"> -24478.37520050 </i>
    <i name="eentropy">     -0.02451903 </i>
    <i name="bandstr">  -2027.19353343 </i>
    <i name="atom">  17315.66014183 </i>
    <i name="e_fr_energy">   -412.53365043 </i>
    <i name="e_wo_entrp">   -412.50913140 </i>
    <i name="e_0_energy">   -412.52139091 </i>
   </energy>
  </scstep>
  <structure>
   <crystal>
    <varray name="basis" >
     <v>       0.00000000       0.00000000       5.45982775 </v>
     <v>       4.93807595      -4.93807595       0.00000000 </v>
     <v>      16.62644229      16.62644229       0.00000000 </v>
    </varray>
    <i name="volume">    896.53248773 </i>
    <varray name="rec_basis" >
     <v>       0.00000000       0.00000000       0.18315596 </v>
     <v>       0.10125401      -0.10125401       0.00000000 </v>
     <v>       0.03007258       0.03007258       0.00000000 </v>
    </varray>
   </crystal>
   <varray name="positions" >
    <v>       0.13081166       0.56969810       0.00000000 </v>
    <v>       0.63081166       0.56969810       0.00000000 </v>
    <v>       0.38081166       0.28721810       0.06460374 </v>
    <v>       0.88081166       0.28721810       0.06460374 </v>
    <v>       0.38081166       0.85217810       0.06460374 </v>
    <v>       0.88081166       0.85217810       0.06460374 </v>
    <v>       0.13081166       0.56969810       0.12920747 </v>
    <v>       0.63081166       0.56969810       0.12920747 </v>
    <v>       0.13081166       0.06969810       0.14850068 </v>
    <v>       0.63081166       0.06969810       0.14850068 </v>
    <v>       0.38081166       0.35217810       0.21310441 </v>
    <v>       0.88081166       0.35217810       0.21310441 </v>
    <v>       0.38081166       0.78721810       0.21310441 </v>
    <v>       0.88081166       0.78721810       0.21310441 </v>
    <v>       0.13081166       0.06969810       0.27770815 </v>
    <v>       0.63081166       0.06969810       0.27770815 </v>
    <v>       0.13081210       0.56969460       0.29716978 </v>
    <v>       0.63081202       0.56969460       0.29716989 </v>
    <v>       0.38080911       0.28701896       0.36162963 </v>
    <v>       0.88080774       0.28701896       0.36162961 </v>
    <v>       0.38080974       0.85238266       0.36163301 </v>
    <v>       0.88080837       0.85238268       0.36163300 </v>
    <v>       0.13081935       0.56969624       0.42738502 </v>
    <v>       0.63081934       0.56969624       0.42738432 </v>
    <v>       0.13081336       0.06969708       0.44518901 </v>
    <v>       0.63081315       0.06969708       0.44518882 </v>
    <v>       0.38080675       0.35310029       0.51043336 </v>
    <v>       0.88081043       0.35310041       0.51043336 </v>
    <v>       0.38080620       0.78630158       0.51042950 </v>
    <v>       0.88080986       0.78630146       0.51042950 </v>
    <v>       0.13081261       0.06969614       0.57204026 </v>
    <v>       0.63081232       0.06969614       0.57204009 </v>
    <v>       0.13081166       0.06969810       0.06460374 </v>
    <v>       0.63081166       0.06969810       0.06460374 </v>
    <v>       0.38081166       0.56969810       0.06460374 </v>
    <v>       0.88081166       0.56969810       0.06460374 </v>
    <v>       0.38081166       0.06969810       0.21310441 </v>
    <v>       0.88081166       0.06969810       0.21310441 </v>
    <v>       0.13081166       0.56969810       0.21310441 </v>
    <v>       0.63081166       0.56969810       0.21310441 </v>
    <v>       0.13081139       0.06970070       0.36162805 </v>
    <v>       0.63081080       0.06970071       0.36162845 </v>
    <v>       0.38081015       0.56968909       0.36157793 </v>
    <v>       0.88080971       0.56968909       0.36157789 </v>
    <v>       0.38080307       0.06968851       0.51361050 </v>
    <v>       0.88080424       0.06968851       0.51361040 </v>
    <v>       0.13080761       0.56969913       0.50775590 </v>
    <v>       0.63080769       0.56969913       0.50775631 </v>
   </varray>
  </structure>
  <varray name="forces" >
   <v>       1.89557974       1.89462178      -0.00171506 </v>
   <v>       1.89568100       1.89472412      -0.00172205 </v>
   <v>      -0.43896218      -0.03322042       0.00211285 </v>
   <v>      -0.43896532      -0.03321804       0.00319863 </v>
   <v>      -0.03492032      -0.44059244      -0.00273972 </v>
   <v>      -0.03492167      -0.44059105      -0.00165827 </v>
   <v>       0.26154709       0.26247192       0.00166509 </v>
   <v>       0.26137597       0.26230062       0.00166177 </v>
   <v>      -0.88049072      -0.87917386       0.00237307 </v>
   <v>      -0.88000843      -0.87869158       0.00238025 </v>
   <v>       0.03783358      -0.05615052      -0.00162593 </v>
   <v>       0.03783145      -0.05614772      -0.00157368 </v>
   <v>      -0.05741644       0.03614440       0.00228162 </v>
   <v>      -0.05741367       0.03614155       0.00233451 </v>
   <v>      -0.15746289      -0.15790462      -0.00229954 </v>
   <v>      -0.15742465      -0.15786608      -0.00230021 </v>
   <v>       0.22618199       0.22668613      -0.00013908 </v>
   <v>       0.22644710       0.22695119      -0.00015073 </v>
   <v>       0.02313866      -0.01413051      -0.00151130 </v>
   <v>       0.02311719      -0.01410761      -0.00135099 </v>
   <v>      -0.01179992       0.02471416       0.00071860 </v>
   <v>      -0.01177705       0.02469516       0.00087795 </v>
   <v>       0.14925389       0.14879129      -0.00069689 </v>
   <v>       0.14956818       0.14910714      -0.00071141 </v>
   <v>       0.30940565       0.30750012       0.00033871 </v>
   <v>       0.30943591       0.30753065       0.00035511 </v>
   <v>       0.43700939       0.23107720      -0.00117162 </v>
   <v>       0.43698316       0.23110805      -0.00099977 </v>
   <v>       0.23253105       0.43521606       0.00032706 </v>
   <v>       0.23255972       0.43518751       0.00050223 </v>
   <v>       0.27473461       0.27416261      -0.00187107 </v>
   <v>       0.27478447       0.27421336      -0.00184366 </v>
   <v>       1.69428034       1.69287772      -0.00017220 </v>
   <v>       1.69423310       1.69283361      -0.00016907 </v>
   <v>      -2.49931074      -2.49623206       0.00045761 </v>
   <v>      -2.49930229      -2.49622586       0.00042340 </v>
   <v>       0.06107464       0.06393738       0.00144664 </v>
   <v>       0.06107863       0.06394186       0.00037451 </v>
   <v>      -0.07237142      -0.07423746      -0.00002328 </v>
   <v>      -0.07284937      -0.07471732      -0.00002943 </v>
   <v>       0.50225127       0.50378416      -0.00055179 </v>
   <v>       0.50204517       0.50357875      -0.00054961 </v>
   <v>      -0.29830447      -0.29675810      -0.00016426 </v>
   <v>      -0.29828763      -0.29674325      -0.00056054 </v>
   <v>      -0.61986707      -0.61890720       0.00302377 </v>
   <v>      -0.61988020      -0.61892109       0.00108194 </v>
   <v>      -1.03402831      -1.03479656       0.00017914 </v>
   <v>      -1.03419816      -1.03496514       0.00018672 </v>
  </varray>
  <varray name="stress" >
   <v>     -11.18330527     -18.43534399       0.01368519 </v>
   <v>     -18.43534404     -11.16821429      -0.02829774 </v>
   <v>       0.01368525      -0.02829774       3.62521368 </v>
  </varray>
  <energy>
   <i name="e_fr_energy">   -422.63924304 </i>
   <i name="e_wo_entrp">   -422.62698352 </i>
   <i name="e_0_energy">     -0.02451903 </i>
  </energy>
  <time name="totalsc">  322.34  323.77</time>
 </calculation>
 <calculation>
  <scstep>
   <time name="dav">   17.58   17.59</time>
   <time name="total">   18.56   18.57</time>
   <energy>
    <i name="alphaZ">    826.07524987 </i>
    <i name="ewald">  50252.14517431 </i>
    <i name="hartreedc"> -67768.35206995 </i>
    <i name="XCdc">    -55.22280731 </i>
    <i name="pawpsdc">  25524.23741031 </i>
    <i name="pawaedc"> -24478.37557407 </i>
    <i name="eentropy">     -0.02463598 </i>
    <i name="bandstr">  -2028.76193627 </i>
    <i name="atom">  17315.66014183 </i>
    <i name="e_fr_energy">   -412.61904728 </i>
    <i name="e_wo_entrp">   -412.59441130 </i>
    <i name="e_0_energy">   -412.60672929 </i>
   </energy>
  </scstep>
  <scstep>
   <time name="diag">    2.94    2.94</time>
   <time name="diis">   10.24   10.24</time>
   <time name="orth">    0.54    0.54</time>
   <time name="total">   14.70   14.71</time>
   <energy>
    <i name="e_fr_energy">   -412.65310687 </i>
    <i name="e_wo_entrp">   -412.62254674 </i>
    <i name="e_0_energy">   -412.63782680 </i>
   </energy>
  </scstep>
  <scstep>
   <time name="diag">    2.94    2.94</time>
   <time name="diis">   10.35   10.36</time>
[...]
       <r>   -20.2128     0.0000     0.0000 </r>
       <r>   -20.1201     0.0000     0.0000 </r>
       <r>   -20.0275     0.0000     0.0000 </r>
       <r>   -19.9349     0.0000     0.0000 </r>
       <r>   -19.8422     0.0475     0.0044 </r>
       <r>   -19.7496     1.5028     0.1436 </r>
       <r>   -19.6569     3.6627     0.4829 </r>
       <r>   -19.5643     3.4628     0.8038 </r>
       <r>   -19.4716     3.6922     1.1458 </r>
       <r>   -19.3790     8.5274     1.9358 </r>
       <r>   -19.2864    10.5906     2.9169 </r>
       <r>   -19.1937     9.0276     3.7533 </r>
       <r>   -19.1011     9.4131     4.6253 </r>
       <r>   -19.0084    11.4145     5.6828 </r>
       <r>   -18.9158    18.7997     7.4245 </r>
       <r>   -18.8231    17.5670     9.0519 </r>
       <r>   -18.7305    22.5441    11.1405 </r>
       <r>   -18.6379    15.8749    12.6112 </r>
       <r>   -18.5452    16.4623    14.1363 </r>
       <r>   -18.4526    23.4810    16.3116 </r>
       <r>   -18.3599    19.7185    18.1384 </r>
       <r>   -18.2673    16.5173    19.6686 </r>
       <r>   -18.1746    20.7693    21.5928 </r>
       <r>   -18.0820    26.3260    24.0317 </r>
       <r>   -17.9894    15.7950    25.4950 </r>
       <r>   -17.8967     7.0679    26.1498 </r>
       <r>   -17.8041     9.4560    27.0258 </r>
       <r>   -17.7114     8.9037    27.8507 </r>
       <r>   -17.6188     1.6064    27.9995 </r>
       <r>   -17.5261     0.0059    28.0000 </r>
       <r>   -17.4335     0.3714    28.0344 </r>
       <r>   -17.3409     2.2888    28.2465 </r>
       <r>   -17.2482     4.2537    28.6406 </r>
       <r>   -17.1556     3.5660    28.9709 </r>
       <r>   -17.0629     1.1161    29.0743 </r>
       <r>   -16.9703     6.0231    29.6323 </r>
       <r>   -16.8776     3.7888    29.9833 </r>
       <r>   -16.7850     0.9088    30.0675 </r>
       <r>   -16.6924     7.9034    30.7997 </r>
       <r>   -16.5997     4.9515    31.2584 </r>
       <r>   -16.5071     4.5663    31.6815 </r>
       <r>   -16.4144     3.1885    31.9769 </r>
       <r>   -16.3218     0.2497    32.0000 </r>
       <r>   -16.2291     0.0001    32.0000 </r>
       <r>   -16.1365     0.0000    32.0000 </r>
       <r>   -16.0439     0.0000    32.0000 </r>
       <r>   -15.9512     0.0000    32.0000 </r>
       <r>   -15.8586     0.0000    32.0000 </r>
       <r>   -15.7659     0.0000    32.0000 </r>
       <r>   -15.6733     0.0000    32.0000 </r>
       <r>   -15.5806     0.0000    32.0000 </r>
       <r>   -15.4880     0.0000    32.0000 </r>
       <r>   -15.3954     0.0000    32.0000 </r>
       <r>   -15.3027     0.0000    32.0000 </r>
       <r>   -15.2101     0.0000    32.0000 </r>
       <r>   -15.1174     0.0000    32.0000 </r>
       <r>   -15.0248     0.0000    32.0000 </r>
       <r>   -14.9321     0.0000    32.0000 </r>
       <r>   -14.8395     0.0000    32.0000 </r>
       <r>   -14.7469     0.0000    32.0000 </r>
       <r>   -14.6542     0.0000    32.0000 </r>
       <r>   -14.5616     0.0000    32.0000 </r>
       <r>   -14.4689     0.0000    32.0000 </r>
       <r>   -14.3763     0.0000    32.0000 </r>
       <r>   -14.2836     0.0000    32.0000 </r>
       <r>   -14.1910     0.0000    32.0000 </r>
       <r>   -14.0984     0.0000    32.0000 </r>
       <r>   -14.0057     0.0000    32.0000 </r>
       <r>   -13.9131     0.0000    32.0000 </r>
       <r>   -13.8204     0.0000    32.0000 </r>
       <r>   -13.7278     0.0000    32.0000 </r>
       <r>   -13.6351     0.0000    32.0000 </r>
       <r>   -13.5425     0.0000    32.0000 </r>
       <r>   -13.4499     0.0000    32.0000 </r>
       <r>   -13.3572     0.0000    32.0000 </r>
       <r>   -13.2646     0.0000    32.0000 </r>
       <r>   -13.1719     0.0000    32.0000 </r>
       <r>   -13.0793     0.0000    32.0000 </r>
       <r>   -12.9866     0.0000    32.0000 </r>
       <r>   -12.8940     0.0000    32.0000 </r>
       <r>   -12.8014     0.0000    32.0000 </r>
       <r>   -12.7087     0.0000    32.0000 </r>
       <r>   -12.6161     0.0000    32.0000 </r>
       <r>   -12.5234     0.0000    32.0000 </r>
       <r>   -12.4308     0.0000    32.0000 </r>
       <r>   -12.3381     0.0000    32.0000 </r>
       <r>   -12.2455     0.0000    32.0000 </r>
       <r>   -12.1529     0.0000    32.0000 </r>
       <r>   -12.0602     0.0000    32.0000 </r>
       <r>   -11.9676     0.0000    32.0000 </r>
       <r>   -11.8749     0.0000    32.0000 </r>
       <r>   -11.7823     0.0000    32.0000 </r>
       <r>   -11.6896     0.0000    32.0000 </r>
       <r>   -11.5970     0.0000    32.0000 </r>
       <r>   -11.5044     0.0000    32.0000 </r>
       <r>   -11.4117     0.0000    32.0000 </r>
       <r>   -11.3191     0.0000    32.0000 </r>
       <r>   -11.2264     0.0000    32.0000 </r>
       <r>   -11.1338     0.0000    32.0000 </r>
       <r>   -11.0411     0.0000    32.0000 </r>
       <r>   -10.9485     0.0000    32.0000 </r>
       <r>   -10.8559     0.0000    32.0000 </r>
       <r>   -10.7632     0.0000    32.0000 </r>
       <r>   -10.6706     0.0000    32.0000 </r>
       <r>   -10.5779     0.0000    32.0000 </r>
       <r>   -10.4853     0.0000    32.0000 </r>
       <r>   -10.3926     0.0000    32.0000 </r>
       <r>   -10.3000     0.0000    32.0000 </r>
       <r>   -10.2074     0.0000    32.0000 </r>
       <r>   -10.1147     0.0000    32.0000 </r>
       <r>   -10.0221     0.0000    32.0000 </r>
       <r>    -9.9294     0.0000    32.0000 </r>
       <r>    -9.8368     0.0000    32.0000 </r>
       <r>    -9.7441     0.0000    32.0000 </r>
       <r>    -9.6515     0.0000    32.0000 </r>
       <r>    -9.5589     0.0000    32.0000 </r>
       <r>    -9.4662     0.0000    32.0000 </r>
       <r>    -9.3736     0.0000    32.0000 </r>
       <r>    -9.2809     0.0000    32.0000 </r>
       <r>    -9.1883     0.0000    32.0000 </r>
       <r>    -9.0956     0.0000    32.0000 </r>
       <r>    -9.0030     0.0000    32.0000 </r>
       <r>    -8.9104     0.0000    32.0000 </r>
       <r>    -8.8177     0.0000    32.0000 </r>
       <r>    -8.7251     0.0000    32.0000 </r>
       <r>    -8.6324     0.0000    32.0000 </r>
       <r>    -8.5398     0.0000    32.0000 </r>
       <r>    -8.4471     0.0000    32.0000 </r>
       <r>    -8.3545     0.0000    32.0000 </r>
       <r>    -8.2619     0.0000    32.0000 </r>
       <r>    -8.1692     0.0000    32.0000 </r>
       <r>    -8.0766     0.0000    32.0000 </r>
       <r>    -7.9839     0.0000    32.0000 </r>
       <r>    -7.8913     0.0004    32.0000 </r>
       <r>    -7.7986     0.2181    32.0202 </r>
       <r>    -7.7060     1.4117    32.1510 </r>
       <r>    -7.6134     3.2763    32.4546 </r>
       <r>    -7.5207     7.5023    33.1496 </r>
       <r>    -7.4281     9.6377    34.0424 </r>
       <r>    -7.3354    10.7016    35.0339 </r>
       <r>    -7.2428     8.3880    35.8110 </r>
       <r>    -7.1501     6.9544    36.4552 </r>
       <r>    -7.0575     7.3789    37.1388 </r>
       <r>    -6.9649    15.2570    38.5523 </r>
       <r>    -6.8722    16.4555    40.0768 </r>
       <r>    -6.7796    13.0898    41.2895 </r>
       <r>    -6.6869    17.9473    42.9521 </r>
       <r>    -6.5943    18.3250    44.6498 </r>
       <r>    -6.5016    21.5773    46.6488 </r>
       <r>    -6.4090    20.6491    48.5618 </r>
       <r>    -6.3164    14.3877    49.8947 </r>
       <r>    -6.2237    19.1609    51.6698 </r>
       <r>    -6.1311    19.3058    53.4584 </r>
       <r>    -6.0384    16.1930    54.9585 </r>
       <r>    -5.9458    12.5369    56.1200 </r>
       <r>    -5.8531     9.3816    56.9891 </r>
       <r>    -5.7605    17.7582    58.6343 </r>
       <r>    -5.6679    20.6700    60.5492 </r>
       <r>    -5.5752    11.5690    61.6210 </r>
       <r>    -5.4826    14.9824    63.0090 </r>
       <r>    -5.3899    16.1495    64.5052 </r>
       <r>    -5.2973    10.1992    65.4500 </r>
       <r>    -5.2046    11.1372    66.4818 </r>
       <r>    -5.1120    15.8996    67.9548 </r>
       <r>    -5.0194    23.9679    70.1753 </r>
       <r>    -4.9267    15.0330    71.5680 </r>
       <r>    -4.8341    16.2224    73.0709 </r>
       <r>    -4.7414    14.8766    74.4491 </r>
       <r>    -4.6488    14.4625    75.7889 </r>
       <r>    -4.5561    16.9829    77.3623 </r>
       <r>    -4.4635    22.8288    79.4772 </r>
       <r>    -4.3709    18.1594    81.1595 </r>
       <r>    -4.2782    19.0470    82.9241 </r>
       <r>    -4.1856    14.7508    84.2906 </r>
       <r>    -4.0929    17.4410    85.9064 </r>
       <r>    -4.0003    20.5712    87.8122 </r>
       <r>    -3.9076    23.3817    89.9784 </r>
       <r>    -3.8150    22.1672    92.0320 </r>
       <r>    -3.7224    21.8109    94.0526 </r>
       <r>    -3.6297    22.7677    96.1619 </r>
       <r>    -3.5371    20.8172    98.0904 </r>
       <r>    -3.4444    18.4873    99.8032 </r>
       <r>    -3.3518    23.8295   102.0108 </r>
       <r>    -3.2591    22.1364   104.0616 </r>
       <r>    -3.1665    14.0129   105.3598 </r>
       <r>    -3.0739    14.6828   106.7200 </r>
       <r>    -2.9812    12.4766   107.8759 </r>
       <r>    -2.8886    15.2010   109.2842 </r>
       <r>    -2.7959    18.7273   111.0191 </r>
       <r>    -2.7033    19.5809   112.8332 </r>
       <r>    -2.6106    18.9338   114.5872 </r>
       <r>    -2.5180    16.6611   116.1308 </r>
       <r>    -2.4254    12.7319   117.3103 </r>
       <r>    -2.3327    15.9806   118.7908 </r>
       <r>    -2.2401    18.1561   120.4728 </r>
       <r>    -2.1474     6.9717   121.1187 </r>
       <r>    -2.0548    11.5801   122.1915 </r>
       <r>    -1.9621     5.9566   122.7433 </r>
       <r>    -1.8695     9.7287   123.6446 </r>
       <r>    -1.7769    12.8777   124.8377 </r>
       <r>    -1.6842    15.6753   126.2899 </r>
       <r>    -1.5916    13.5941   127.5493 </r>
       <r>    -1.4989     4.3812   127.9552 </r>
       <r>    -1.4063     1.9285   128.1338 </r>
       <r>    -1.3136     4.4675   128.5477 </r>
       <r>    -1.2210     4.5584   128.9700 </r>
       <r>    -1.1284     2.6511   129.2156 </r>
       <r>    -1.0357     4.3573   129.6193 </r>
       <r>    -0.9431     6.6151   130.2321 </r>
       <r>    -0.8504     4.9860   130.6940 </r>
       <r>    -0.7578     5.7856   131.2300 </r>
       <r>    -0.6651     7.3627   131.9121 </r>
       <r>    -0.5725     3.4343   132.2303 </r>
       <r>    -0.4799     3.2663   132.5329 </r>
       <r>    -0.3872     6.8627   133.1687 </r>
       <r>    -0.2946    10.2032   134.1139 </r>
       <r>    -0.2019     7.2168   134.7825 </r>
       <r>    -0.1093     6.7545   135.4083 </r>
       <r>    -0.0166     9.6758   136.3047 </r>
       <r>     0.0760     8.9555   137.1343 </r>
       <r>     0.1686    11.9453   138.2410 </r>
       <r>     0.2613     8.1214   138.9934 </r>
       <r>     0.3539    13.8365   140.2752 </r>
       <r>     0.4466    10.4078   141.2394 </r>
       <r>     0.5392     9.3516   142.1058 </r>
       <r>     0.6319     8.0081   142.8477 </r>
       <r>     0.7245    10.0696   143.7806 </r>
       <r>     0.8171    10.8948   144.7899 </r>
       <r>     0.9098     7.7862   145.5112 </r>
       <r>     1.0024     8.5833   146.3064 </r>
       <r>     1.0951    12.1318   147.4303 </r>
       <r>     1.1877    12.5133   148.5896 </r>
       <r>     1.2804    13.7389   149.8624 </r>
       <r>     1.3730    17.6268   151.4954 </r>
       <r>     1.4656    15.3304   152.9157 </r>
       <r>     1.5583    14.7589   154.2830 </r>
       <r>     1.6509    13.2151   155.5072 </r>
       <r>     1.7436    15.7977   156.9708 </r>
       <r>     1.8362    15.6524   158.4209 </r>
       <r>     1.9289    22.4290   160.4987 </r>
       <r>     2.0215    19.6400   162.3183 </r>
       <r>     2.1141    21.9799   164.3545 </r>
       <r>     2.2068    13.7677   165.6300 </r>
       <r>     2.2994    14.6365   166.9860 </r>
       <r>     2.3921     8.6709   167.7893 </r>
       <r>     2.4847    12.6020   168.9568 </r>
       <r>     2.5774    14.7303   170.3214 </r>
       <r>     2.6700    11.6028   171.3963 </r>
       <r>     2.7626    13.0450   172.6049 </r>
       <r>     2.8553     8.9225   173.4315 </r>
       <r>     2.9479    10.0817   174.3655 </r>
       <r>     3.0406     6.9434   175.0087 </r>
       <r>     3.1332     8.9826   175.8409 </r>
       <r>     3.2259     8.8833   176.6639 </r>
       <r>     3.3185     2.0549   176.8542 </r>
       <r>     3.4111     5.3342   177.3484 </r>
       <r>     3.5038     4.8404   177.7968 </r>
       <r>     3.5964     5.3214   178.2898 </r>
       <r>     3.6891     5.2651   178.7776 </r>
       <r>     3.7817     4.0540   179.1532 </r>
       <r>     3.8744     6.3608   179.7425 </r>
       <r>     3.9670     8.9341   180.5701 </r>
       <r>     4.0596    12.1185   181.6928 </r>
       <r>     4.1523    13.2544   182.9208 </r>
       <r>     4.2449     9.3199   183.7842 </r>
       <r>     4.3376     5.6853   184.3109 </r>
       <r>     4.4302     8.6649   185.1136 </r>
       <r>     4.5229    15.0548   186.5084 </r>
       <r>     4.6155    11.6612   187.5887 </r>
       <r>     4.7081     8.2742   188.3552 </r>
       <r>     4.8008     6.6563   188.9719 </r>
       <r>     4.8934     8.5278   189.7619 </r>
       <r>     4.9861    11.8932   190.8637 </r>
       <r>     5.0787    11.0132   191.8840 </r>
       <r>     5.1714    12.9094   193.0800 </r>
       <r>     5.2640    11.4188   194.1379 </r>
       <r>     5.3566     9.6241   195.0295 </r>
       <r>     5.4493     7.2286   195.6992 </r>
       <r>     5.5419     3.0983   195.9862 </r>
       <r>     5.6346     0.1489   196.0000 </r>
       <r>     5.7272     0.0000   196.0000 </r>
       <r>     5.8199     0.0000   196.0000 </r>
       <r>     5.9125     0.0000   196.0000 </r>
       <r>     6.0051     0.0000   196.0000 </r>
       <r>     6.0978     0.0000   196.0000 </r>
       <r>     6.1904     0.0000   196.0000 </r>
       <r>     6.2831     0.0000   196.0000 </r>
       <r>     6.3757     0.0000   196.0000 </r>
       <r>     6.4684     0.0000   196.0000 </r>
       <r>     6.5610     0.0000   196.0000 </r>
       <r>     6.6536     0.0000   196.0000 </r>
       <r>     6.7463     0.0000   196.0000 </r>
      </set>
     </set>
    </array>
   </total>
  </dos>
 </calculation>
 <structure name="finalpos" >
  <crystal>
   <varray name="basis" >
    <v>       0.00000000       0.00000000       5.45982775 </v>
    <v>       4.93807595      -4.93807595       0.00000000 </v>
    <v>      16.62644229      16.62644229       0.00000000 </v>
   </varray>
   <i name="volume">    896.53248773 </i>
   <varray name="rec_basis" >
    <v>       0.00000000       0.00000000       0.18315596 </v>
    <v>       0.10125401      -0.10125401       0.00000000 </v>
    <v>       0.03007258       0.03007258       0.00000000 </v>
   </varray>
  </crystal>
  <varray name="positions" >
   <v>       0.13081166       0.56969810       0.00000000 </v>
   <v>       0.63081166       0.56969810       0.00000000 </v>
   <v>       0.38081166       0.28721810       0.06460374 </v>
   <v>       0.88081166       0.28721810       0.06460374 </v>
   <v>       0.38081166       0.85217810       0.06460374 </v>
   <v>       0.88081166       0.85217810       0.06460374 </v>
   <v>       0.13081166       0.56969810       0.12920747 </v>
   <v>       0.63081166       0.56969810       0.12920747 </v>
   <v>       0.13081166       0.06969810       0.14850068 </v>
   <v>       0.63081166       0.06969810       0.14850068 </v>
   <v>       0.38081166       0.35217810       0.21310441 </v>
   <v>       0.88081166       0.35217810       0.21310441 </v>
   <v>       0.38081166       0.78721810       0.21310441 </v>
   <v>       0.88081166       0.78721810       0.21310441 </v>
   <v>       0.13081166       0.06969810       0.27770815 </v>
   <v>       0.63081166       0.06969810       0.27770815 </v>
   <v>       0.13018881       0.56979027       0.29962624 </v>
   <v>       0.63024936       0.56977698       0.29505212 </v>
   <v>       0.37624018       0.29277148       0.36275788 </v>
   <v>       0.87383487       0.27881726       0.36270275 </v>
   <v>       0.37620628       0.84677862       0.36278234 </v>
   <v>       0.87380596       0.86073199       0.36274903 </v>
   <v>       0.12334751       0.56971829       0.42243120 </v>
   <v>       0.63735849       0.56977770       0.42706662 </v>
   <v>       0.13865182       0.06992181       0.45035768 </v>
   <v>       0.62413620       0.06981342       0.44689532 </v>
   <v>       0.38819401       0.37166758       0.51532315 </v>
   <v>       0.88759167       0.34832400       0.51175059 </v>
   <v>       0.38821259       0.76791712       0.51521215 </v>
   <v>       0.88758760       0.79116971       0.51177014 </v>
   <v>       0.13225470       0.06960972       0.57006527 </v>
   <v>       0.62734237       0.06974629       0.57898878 </v>
   <v>       0.13081166       0.06969810       0.06460374 </v>
   <v>       0.63081166       0.06969810       0.06460374 </v>
   <v>       0.38081166       0.56969810       0.06460374 </v>
   <v>       0.88081166       0.56969810       0.06460374 </v>
   <v>       0.38081166       0.06969810       0.21310441 </v>
   <v>       0.88081166       0.06969810       0.21310441 </v>
   <v>       0.13081166       0.56969810       0.21310441 </v>
   <v>       0.63081166       0.56969810       0.21310441 </v>
   <v>       0.14726606       0.06977924       0.36513705 </v>
   <v>       0.60734018       0.06977648       0.36360780 </v>
   <v>       0.40423130       0.56975978       0.36056385 </v>
   <v>       0.86262314       0.56976774       0.35946160 </v>
   <v>       0.39976592       0.06966720       0.51663527 </v>
   <v>       0.85880023       0.06974260       0.51436940 </v>
   <v>       0.11390752       0.56975211       0.50241429 </v>
   <v>       0.66195122       0.56975259       0.50584201 </v>
  </varray>
  <varray name="selective"  type="logical" >
   <v type="logical" >  F  F  F </v>
   <v type="logical" >  F  F  F </v>
   <v type="logical" >  F  F  F </v>
   <v type="logical" >  F  F  F </v>
   <v type="logical" >  F  F  F </v>
   <v type="logical" >  F  F  F </v>
   <v type="logical" >  F  F  F </v>
   <v type="logical" >  F  F  F </v>
   <v type="logical" >  F  F  F </v>
   <v type="logical" >  F  F  F </v>
   <v type="logical" >  F  F  F </v>
   <v type="logical" >  F  F  F </v>
   <v type="logical" >  F  F  F </v>
   <v type="logical" >  F  F  F </v>
   <v type="logical" >  F  F  F </v>
   <v type="logical" >  F  F  F </v>
   <v type="logical" >  T  T  T </v>
   <v type="logical" >  T  T  T </v>
   <v type="logical" >  T  T  T </v>
   <v type="logical" >  T  T  T </v>
   <v type="logical" >  T  T  T </v>
   <v type="logical" >  T  T  T </v>
   <v type="logical" >  T  T  T </v>
   <v type="logical" >  T  T  T </v>
   <v type="logical" >  T  T  T </v>
   <v type="logical" >  T  T  T </v>
   <v type="logical" >  T  T  T </v>
   <v type="logical" >  T  T  T </v>
   <v type="logical" >  T  T  T </v>
   <v type="logical" >  T  T  T </v>
   <v type="logical" >  T  T  T </v>
   <v type="logical" >  T  T  T </v>
   <v type="logical" >  F  F  F </v>
   <v type="logical" >  F  F  F </v>
   <v type="logical" >  F  F  F </v>
   <v type="logical" >  F  F  F </v>
   <v type="logical" >  F  F  F </v>
   <v type="logical" >  F  F  F </v>
   <v type="logical" >  F  F  F </v>
   <v type="logical" >  F  F  F </v>
   <v type="logical" >  T  T  T </v>
   <v type="logical" >  T  T  T </v>
   <v type="logical" >  T  T  T </v>
   <v type="logical" >  T  T  T </v>
   <v type="logical" >  T  T  T </v>
   <v type="logical" >  T  T  T </v>
   <v type="logical" >  T  T  T </v>
   <v type="logical" >  T  T  T </v>
  </varray>
  <nose>
   <v>      -3.00000000       0.00000000       0.00010000       0.00010000 </v>
  </nose>
 </structure>
</modeling>
