  48  48   0   0
  0.1863536E+02  0.6362157E-09  0.6384483E-09  0.2202160E-08  0.1000000E-15
  1.000000000000000E-004
  CAR 
 IrO2_suf110_d3_2x1x4_2fix               
     11.72378959    -21.63956657  301      0.94586358      1.00000000
    -21.640  0.0000E+00  0.0000E+00  0.0000E+00  0.0000E+00
    -21.528  0.0000E+00  0.0000E+00  0.0000E+00  0.0000E+00
    -21.417  0.0000E+00  0.0000E+00  0.0000E+00  0.0000E+00
    -21.306  0.0000E+00  0.0000E+00  0.0000E+00  0.0000E+00
    -21.195  0.0000E+00  0.0000E+00  0.0000E+00  0.0000E+00
    -21.084  0.0000E+00  0.0000E+00  0.0000E+00  0.0000E+00
    -20.972  0.0000E+00  0.0000E+00  0.0000E+00  0.0000E+00
    -20.861  0.0000E+00  0.0000E+00  0.0000E+00  0.0000E+00
    -20.750  0.0000E+00  0.0000E+00  0.0000E+00  0.0000E+00
    -20.639  0.0000E+00  0.0000E+00  0.0000E+00  0.0000E+00
    -20.527  0.0000E+00  0.0000E+00  0.0000E+00  0.0000E+00
    -20.416  0.3900E-19  0.3900E-19  0.4337E-20  0.4337E-20
    -20.305  0.9286E-10  0.9285E-10  0.1033E-10  0.1033E-10
    -20.194  0.1592E-04  0.1592E-04  0.1770E-05  0.1770E-05
    -20.083  0.6376E-03  0.6376E-03  0.7268E-04  0.7268E-04
    -19.971  0.2228E-02  0.2228E-02  0.3204E-03  0.3204E-03
    -19.860  0.3034E-02  0.3034E-02  0.6579E-03  0.6579E-03
    -19.749  0.3090E-02  0.3090E-02  0.1002E-02  0.1002E-02
    -19.638  0.5358E-02  0.5358E-02  0.1597E-02  0.1597E-02
    -19.527  0.6697E-02  0.6697E-02  0.2342E-02  0.2342E-02
    -19.415  0.7908E-02  0.7908E-02  0.3222E-02  0.3222E-02
    -19.304  0.1507E-01  0.1507E-01  0.4898E-02  0.4898E-02
    -19.193  0.9327E-02  0.9327E-02  0.5935E-02  0.5935E-02
    -19.082  0.1687E-01  0.1687E-01  0.7812E-02  0.7812E-02
    -18.970  0.2061E-01  0.2061E-01  0.1010E-01  0.1010E-01
    -18.859  0.1879E-01  0.1879E-01  0.1219E-01  0.1219E-01
    -18.748  0.3123E-01  0.3123E-01  0.1567E-01  0.1567E-01
    -18.637  0.2656E-01  0.2656E-01  0.1862E-01  0.1862E-01
    -18.526  0.2057E-01  0.2057E-01  0.2091E-01  0.2091E-01
    -18.414  0.3668E-01  0.3668E-01  0.2499E-01  0.2499E-01
    -18.303  0.3691E-01  0.3691E-01  0.2909E-01  0.2909E-01
    -18.192  0.3051E-01  0.3051E-01  0.3249E-01  0.3249E-01
    -18.081  0.1662E-01  0.1662E-01  0.3433E-01  0.3433E-01
    -17.970  0.5090E-02  0.5090E-02  0.3490E-01  0.3490E-01
    -17.858  0.8913E-03  0.8913E-03  0.3500E-01  0.3500E-01
    -17.747  0.4647E-05  0.4647E-05  0.3500E-01  0.3500E-01
    -17.636  0.6103E-11  0.6103E-11  0.3500E-01  0.3500E-01
    -17.525  0.0000E+00  0.0000E+00  0.3500E-01  0.3500E-01
    -17.414  0.0000E+00  0.0000E+00  0.3500E-01  0.3500E-01
    -17.302  0.0000E+00  0.0000E+00  0.3500E-01  0.3500E-01
    -17.191  0.6473E-17  0.6473E-17  0.3500E-01  0.3500E-01
    -17.080  0.5327E-08  0.5327E-08  0.3500E-01  0.3500E-01
    -16.969  0.3856E-03  0.3856E-03  0.3504E-01  0.3504E-01
    -16.857  0.1282E-01  0.1282E-01  0.3647E-01  0.3647E-01
    -16.746  0.1267E-01  0.1267E-01  0.3788E-01  0.3788E-01
    -16.635  0.1713E-01  0.1713E-01  0.3978E-01  0.3978E-01
    -16.524  0.1950E-02  0.1950E-02  0.4000E-01  0.4000E-01
    -16.413  0.9588E-06  0.9588E-06  0.4000E-01  0.4000E-01
    -16.301  0.8431E-13  0.8432E-13  0.4000E-01  0.4000E-01
    -16.190  0.0000E+00  0.0000E+00  0.4000E-01  0.4000E-01
    -16.079  0.0000E+00  0.0000E+00  0.4000E-01  0.4000E-01
    -15.968  0.0000E+00  0.0000E+00  0.4000E-01  0.4000E-01
    -15.857  0.0000E+00  0.0000E+00  0.4000E-01  0.4000E-01
    -15.745  0.0000E+00  0.0000E+00  0.4000E-01  0.4000E-01
    -15.634  0.0000E+00  0.0000E+00  0.4000E-01  0.4000E-01
    -15.523  0.0000E+00  0.0000E+00  0.4000E-01  0.4000E-01
    -15.412  0.0000E+00  0.0000E+00  0.4000E-01  0.4000E-01
    -15.301  0.0000E+00  0.0000E+00  0.4000E-01  0.4000E-01
    -15.189  0.0000E+00  0.0000E+00  0.4000E-01  0.4000E-01
    -15.078  0.0000E+00  0.0000E+00  0.4000E-01  0.4000E-01
    -14.967  0.0000E+00  0.0000E+00  0.4000E-01  0.4000E-01
    -14.856  0.0000E+00  0.0000E+00  0.4000E-01  0.4000E-01
    -14.744  0.0000E+00  0.0000E+00  0.4000E-01  0.4000E-01
    -14.633  0.0000E+00  0.0000E+00  0.4000E-01  0.4000E-01
    -14.522  0.0000E+00  0.0000E+00  0.4000E-01  0.4000E-01
    -14.411  0.0000E+00  0.0000E+00  0.4000E-01  0.4000E-01
    -14.300  0.0000E+00  0.0000E+00  0.4000E-01  0.4000E-01
    -14.188  0.0000E+00  0.0000E+00  0.4000E-01  0.4000E-01
    -14.077  0.0000E+00  0.0000E+00  0.4000E-01  0.4000E-01
    -13.966  0.0000E+00  0.0000E+00  0.4000E-01  0.4000E-01
    -13.855  0.0000E+00  0.0000E+00  0.4000E-01  0.4000E-01
    -13.744  0.0000E+00  0.0000E+00  0.4000E-01  0.4000E-01
    -13.632  0.0000E+00  0.0000E+00  0.4000E-01  0.4000E-01
    -13.521  0.0000E+00  0.0000E+00  0.4000E-01  0.4000E-01
    -13.410  0.0000E+00  0.0000E+00  0.4000E-01  0.4000E-01
    -13.299  0.0000E+00  0.0000E+00  0.4000E-01  0.4000E-01
    -13.188  0.0000E+00  0.0000E+00  0.4000E-01  0.4000E-01
    -13.076  0.0000E+00  0.0000E+00  0.4000E-01  0.4000E-01
    -12.965  0.0000E+00  0.0000E+00  0.4000E-01  0.4000E-01
    -12.854  0.0000E+00  0.0000E+00  0.4000E-01  0.4000E-01
    -12.743  0.0000E+00  0.0000E+00  0.4000E-01  0.4000E-01
    -12.631  0.0000E+00  0.0000E+00  0.4000E-01  0.4000E-01
    -12.520  0.0000E+00  0.0000E+00  0.4000E-01  0.4000E-01
    -12.409  0.0000E+00  0.0000E+00  0.4000E-01  0.4000E-01
    -12.298  0.0000E+00  0.0000E+00  0.4000E-01  0.4000E-01
    -12.187  0.0000E+00  0.0000E+00  0.4000E-01  0.4000E-01
    -12.075  0.0000E+00  0.0000E+00  0.4000E-01  0.4000E-01
    -11.964  0.0000E+00  0.0000E+00  0.4000E-01  0.4000E-01
    -11.853  0.0000E+00  0.0000E+00  0.4000E-01  0.4000E-01
    -11.742  0.0000E+00  0.0000E+00  0.4000E-01  0.4000E-01
    -11.631  0.0000E+00  0.0000E+00  0.4000E-01  0.4000E-01
    -11.519  0.0000E+00  0.0000E+00  0.4000E-01  0.4000E-01
    -11.408  0.0000E+00  0.0000E+00  0.4000E-01  0.4000E-01
    -11.297  0.0000E+00  0.0000E+00  0.4000E-01  0.4000E-01
    -11.186  0.0000E+00  0.0000E+00  0.4000E-01  0.4000E-01
    -11.075  0.0000E+00  0.0000E+00  0.4000E-01  0.4000E-01
    -10.963  0.0000E+00  0.0000E+00  0.4000E-01  0.4000E-01
    -10.852  0.0000E+00  0.0000E+00  0.4000E-01  0.4000E-01
    -10.741  0.0000E+00  0.0000E+00  0.4000E-01  0.4000E-01
    -10.630  0.0000E+00  0.0000E+00  0.4000E-01  0.4000E-01
    -10.518  0.0000E+00  0.0000E+00  0.4000E-01  0.4000E-01
    -10.407  0.0000E+00  0.0000E+00  0.4000E-01  0.4000E-01
    -10.296  0.0000E+00  0.0000E+00  0.4000E-01  0.4000E-01
    -10.185  0.0000E+00  0.0000E+00  0.4000E-01  0.4000E-01
    -10.074  0.0000E+00  0.0000E+00  0.4000E-01  0.4000E-01
     -9.962  0.0000E+00  0.0000E+00  0.4000E-01  0.4000E-01
     -9.851  0.0000E+00  0.0000E+00  0.4000E-01  0.4000E-01
     -9.740  0.0000E+00  0.0000E+00  0.4000E-01  0.4000E-01
     -9.629  0.0000E+00  0.0000E+00  0.4000E-01  0.4000E-01
     -9.518  0.0000E+00  0.0000E+00  0.4000E-01  0.4000E-01
     -9.406  0.0000E+00  0.0000E+00  0.4000E-01  0.4000E-01
     -9.295  0.0000E+00  0.0000E+00  0.4000E-01  0.4000E-01
     -9.184  0.0000E+00  0.0000E+00  0.4000E-01  0.4000E-01
     -9.073  0.0000E+00  0.0000E+00  0.4000E-01  0.4000E-01
     -8.961  0.9995E-16  0.9995E-16  0.4000E-01  0.4000E-01
     -8.850  0.1178E-07  0.1178E-07  0.4000E-01  0.4000E-01
     -8.739  0.1405E-03  0.1405E-03  0.4002E-01  0.4002E-01
     -8.628  0.1259E-02  0.1259E-02  0.4016E-01  0.4016E-01
     -8.517  0.2220E-02  0.2220E-02  0.4040E-01  0.4040E-01
     -8.405  0.3527E-02  0.3527E-02  0.4079E-01  0.4079E-01
     -8.294  0.4155E-02  0.4155E-02  0.4126E-01  0.4126E-01
     -8.183  0.8088E-02  0.8088E-02  0.4216E-01  0.4216E-01
     -8.072  0.7317E-02  0.7317E-02  0.4297E-01  0.4297E-01
     -7.961  0.1246E-01  0.1246E-01  0.4436E-01  0.4436E-01
     -7.849  0.6221E-02  0.6221E-02  0.4505E-01  0.4505E-01
     -7.738  0.7052E-02  0.7052E-02  0.4583E-01  0.4583E-01
     -7.627  0.8253E-02  0.8253E-02  0.4675E-01  0.4675E-01
     -7.516  0.9493E-02  0.9493E-02  0.4781E-01  0.4781E-01
     -7.405  0.1212E-01  0.1212E-01  0.4915E-01  0.4915E-01
     -7.293  0.1648E-01  0.1648E-01  0.5099E-01  0.5099E-01
     -7.182  0.1145E-01  0.1145E-01  0.5226E-01  0.5226E-01
     -7.071  0.2793E-01  0.2793E-01  0.5537E-01  0.5537E-01
     -6.960  0.3653E-01  0.3653E-01  0.5943E-01  0.5943E-01
     -6.848  0.3619E-01  0.3619E-01  0.6345E-01  0.6345E-01
     -6.737  0.3480E-01  0.3480E-01  0.6732E-01  0.6732E-01
     -6.626  0.3050E-01  0.3050E-01  0.7072E-01  0.7072E-01
     -6.515  0.1908E-01  0.1908E-01  0.7284E-01  0.7284E-01
     -6.404  0.1941E-01  0.1941E-01  0.7500E-01  0.7500E-01
     -6.292  0.1683E-01  0.1683E-01  0.7687E-01  0.7687E-01
     -6.181  0.1645E-01  0.1645E-01  0.7870E-01  0.7870E-01
     -6.070  0.1421E-01  0.1421E-01  0.8028E-01  0.8028E-01
     -5.959  0.1118E-01  0.1118E-01  0.8152E-01  0.8152E-01
     -5.848  0.1623E-01  0.1623E-01  0.8333E-01  0.8333E-01
     -5.736  0.1229E-01  0.1229E-01  0.8469E-01  0.8469E-01
     -5.625  0.1571E-01  0.1571E-01  0.8644E-01  0.8644E-01
     -5.514  0.1546E-01  0.1546E-01  0.8816E-01  0.8816E-01
     -5.403  0.1552E-01  0.1552E-01  0.8989E-01  0.8989E-01
     -5.292  0.1392E-01  0.1392E-01  0.9144E-01  0.9144E-01
     -5.180  0.1299E-01  0.1299E-01  0.9288E-01  0.9288E-01
     -5.069  0.1540E-01  0.1540E-01  0.9459E-01  0.9459E-01
     -4.958  0.1743E-01  0.1743E-01  0.9653E-01  0.9653E-01
     -4.847  0.1670E-01  0.1670E-01  0.9839E-01  0.9839E-01
     -4.735  0.1671E-01  0.1671E-01  0.1002E+00  0.1002E+00
     -4.624  0.2834E-01  0.2833E-01  0.1034E+00  0.1034E+00
     -4.513  0.3013E-01  0.3013E-01  0.1067E+00  0.1067E+00
     -4.402  0.1882E-01  0.1882E-01  0.1088E+00  0.1088E+00
     -4.291  0.1988E-01  0.1988E-01  0.1111E+00  0.1111E+00
     -4.179  0.3049E-01  0.3049E-01  0.1144E+00  0.1144E+00
     -4.068  0.2571E-01  0.2571E-01  0.1173E+00  0.1173E+00
     -3.957  0.2596E-01  0.2596E-01  0.1202E+00  0.1202E+00
     -3.846  0.2711E-01  0.2711E-01  0.1232E+00  0.1232E+00
     -3.735  0.1770E-01  0.1770E-01  0.1252E+00  0.1252E+00
     -3.623  0.1862E-01  0.1862E-01  0.1272E+00  0.1272E+00
     -3.512  0.2658E-01  0.2658E-01  0.1302E+00  0.1302E+00
     -3.401  0.1583E-01  0.1583E-01  0.1320E+00  0.1320E+00
     -3.290  0.1745E-01  0.1745E-01  0.1339E+00  0.1339E+00
     -3.179  0.1445E-01  0.1445E-01  0.1355E+00  0.1355E+00
     -3.067  0.1603E-01  0.1603E-01  0.1373E+00  0.1373E+00
     -2.956  0.1394E-01  0.1394E-01  0.1388E+00  0.1388E+00
     -2.845  0.1755E-01  0.1755E-01  0.1408E+00  0.1408E+00
     -2.734  0.1123E-01  0.1123E-01  0.1420E+00  0.1420E+00
     -2.622  0.2572E-01  0.2572E-01  0.1449E+00  0.1449E+00
     -2.511  0.8017E-02  0.8017E-02  0.1458E+00  0.1458E+00
     -2.400  0.9348E-02  0.9348E-02  0.1468E+00  0.1468E+00
     -2.289  0.1311E-01  0.1311E-01  0.1483E+00  0.1483E+00
     -2.178  0.1423E-01  0.1423E-01  0.1499E+00  0.1499E+00
     -2.066  0.2397E-01  0.2397E-01  0.1525E+00  0.1525E+00
     -1.955  0.2449E-01  0.2448E-01  0.1553E+00  0.1553E+00
     -1.844  0.1410E-01  0.1410E-01  0.1568E+00  0.1568E+00
     -1.733  0.1067E-01  0.1067E-01  0.1580E+00  0.1580E+00
     -1.622  0.1080E-01  0.1080E-01  0.1592E+00  0.1592E+00
     -1.510  0.6312E-02  0.6312E-02  0.1599E+00  0.1599E+00
     -1.399  0.7959E-02  0.7959E-02  0.1608E+00  0.1608E+00
     -1.288  0.1153E-01  0.1153E-01  0.1621E+00  0.1621E+00
     -1.177  0.1337E-01  0.1337E-01  0.1636E+00  0.1636E+00
     -1.065  0.2462E-01  0.2462E-01  0.1663E+00  0.1663E+00
     -0.954  0.2210E-01  0.2210E-01  0.1688E+00  0.1688E+00
     -0.843  0.3838E-01  0.3838E-01  0.1730E+00  0.1730E+00
     -0.732  0.2756E-01  0.2756E-01  0.1761E+00  0.1761E+00
     -0.621  0.2952E-01  0.2952E-01  0.1794E+00  0.1794E+00
     -0.509  0.3510E-01  0.3510E-01  0.1833E+00  0.1833E+00
     -0.398  0.2410E-01  0.2410E-01  0.1860E+00  0.1860E+00
     -0.287  0.2269E-01  0.2269E-01  0.1885E+00  0.1885E+00
     -0.176  0.1551E-01  0.1551E-01  0.1902E+00  0.1902E+00
     -0.065  0.1523E-01  0.1523E-01  0.1919E+00  0.1919E+00
      0.047  0.2546E-01  0.2546E-01  0.1947E+00  0.1947E+00
      0.158  0.1646E-01  0.1646E-01  0.1966E+00  0.1966E+00
      0.269  0.1268E-01  0.1268E-01  0.1980E+00  0.1980E+00
      0.380  0.1442E-01  0.1442E-01  0.1996E+00  0.1996E+00
      0.491  0.1394E-01  0.1394E-01  0.2011E+00  0.2011E+00
      0.603  0.2282E-01  0.2282E-01  0.2037E+00  0.2037E+00
      0.714  0.1611E-01  0.1611E-01  0.2055E+00  0.2055E+00
      0.825  0.1931E-01  0.1931E-01  0.2076E+00  0.2076E+00
      0.936  0.1997E-01  0.1997E-01  0.2098E+00  0.2098E+00
      1.048  0.1994E-01  0.1994E-01  0.2121E+00  0.2121E+00
      1.159  0.2140E-01  0.2140E-01  0.2144E+00  0.2144E+00
      1.270  0.1429E-01  0.1429E-01  0.2160E+00  0.2160E+00
      1.381  0.1953E-01  0.1953E-01  0.2182E+00  0.2182E+00
      1.492  0.1482E-01  0.1482E-01  0.2198E+00  0.2198E+00
      1.604  0.1316E-01  0.1316E-01  0.2213E+00  0.2213E+00
      1.715  0.1596E-01  0.1596E-01  0.2231E+00  0.2231E+00
      1.826  0.4729E-02  0.4730E-02  0.2236E+00  0.2236E+00
      1.937  0.1011E-01  0.1011E-01  0.2247E+00  0.2247E+00
      2.048  0.3355E-02  0.3355E-02  0.2251E+00  0.2251E+00
      2.160  0.3596E-02  0.3596E-02  0.2255E+00  0.2255E+00
      2.271  0.1873E-02  0.1873E-02  0.2257E+00  0.2257E+00
      2.382  0.3504E-02  0.3504E-02  0.2261E+00  0.2261E+00
      2.493  0.4025E-02  0.4025E-02  0.2265E+00  0.2265E+00
      2.604  0.1004E-01  0.1004E-01  0.2277E+00  0.2277E+00
      2.716  0.8023E-02  0.8023E-02  0.2286E+00  0.2286E+00
      2.827  0.1171E-01  0.1171E-01  0.2299E+00  0.2299E+00
      2.938  0.4460E-02  0.4460E-02  0.2304E+00  0.2304E+00
      3.049  0.7059E-02  0.7059E-02  0.2311E+00  0.2311E+00
      3.161  0.6921E-02  0.6921E-02  0.2319E+00  0.2319E+00
      3.272  0.1258E-01  0.1258E-01  0.2333E+00  0.2333E+00
      3.383  0.4989E-02  0.4989E-02  0.2339E+00  0.2339E+00
      3.494  0.1315E-01  0.1315E-01  0.2353E+00  0.2353E+00
      3.605  0.1911E-01  0.1911E-01  0.2375E+00  0.2375E+00
      3.717  0.8408E-02  0.8408E-02  0.2384E+00  0.2384E+00
      3.828  0.5208E-02  0.5208E-02  0.2390E+00  0.2390E+00
      3.939  0.9781E-02  0.9781E-02  0.2401E+00  0.2401E+00
      4.050  0.1911E-01  0.1911E-01  0.2422E+00  0.2422E+00
      4.161  0.1193E-01  0.1193E-01  0.2435E+00  0.2435E+00
      4.273  0.9424E-02  0.9424E-02  0.2446E+00  0.2446E+00
      4.384  0.1061E-01  0.1061E-01  0.2457E+00  0.2457E+00
      4.495  0.8338E-02  0.8338E-02  0.2467E+00  0.2467E+00
      4.606  0.1251E-01  0.1251E-01  0.2481E+00  0.2481E+00
      4.717  0.1635E-01  0.1635E-01  0.2499E+00  0.2499E+00
      4.829  0.1727E-01  0.1727E-01  0.2518E+00  0.2518E+00
      4.940  0.2233E-01  0.2233E-01  0.2543E+00  0.2543E+00
      5.051  0.1675E-01  0.1675E-01  0.2561E+00  0.2561E+00
      5.162  0.5254E-02  0.5254E-02  0.2567E+00  0.2567E+00
      5.274  0.1033E-01  0.1033E-01  0.2579E+00  0.2579E+00
      5.385  0.9623E-02  0.9623E-02  0.2589E+00  0.2589E+00
      5.496  0.8116E-02  0.8116E-02  0.2598E+00  0.2598E+00
      5.607  0.1416E-02  0.1416E-02  0.2600E+00  0.2600E+00
      5.718  0.1985E-04  0.1985E-04  0.2600E+00  0.2600E+00
      5.830  0.1380E-02  0.1380E-02  0.2602E+00  0.2602E+00
      5.941  0.2466E-02  0.2466E-02  0.2604E+00  0.2604E+00
      6.052  0.5461E-02  0.5461E-02  0.2610E+00  0.2610E+00
      6.163  0.5697E-02  0.5697E-02  0.2617E+00  0.2617E+00
      6.274  0.1007E-02  0.1007E-02  0.2618E+00  0.2618E+00
      6.386  0.2967E-02  0.2967E-02  0.2621E+00  0.2621E+00
      6.497  0.3023E-02  0.3023E-02  0.2624E+00  0.2624E+00
      6.608  0.2851E-02  0.2853E-02  0.2628E+00  0.2628E+00
      6.719  0.4943E-02  0.4943E-02  0.2633E+00  0.2633E+00
      6.830  0.3200E-02  0.3201E-02  0.2637E+00  0.2637E+00
      6.942  0.1043E-02  0.1043E-02  0.2638E+00  0.2638E+00
      7.053  0.1073E-02  0.1072E-02  0.2639E+00  0.2639E+00
      7.164  0.9638E-03  0.9637E-03  0.2640E+00  0.2640E+00
      7.275  0.1960E-02  0.1957E-02  0.2642E+00  0.2642E+00
      7.387  0.7870E-02  0.7862E-02  0.2651E+00  0.2651E+00
      7.498  0.7492E-02  0.7498E-02  0.2659E+00  0.2659E+00
      7.609  0.4763E-02  0.4766E-02  0.2665E+00  0.2665E+00
      7.720  0.9130E-02  0.9130E-02  0.2675E+00  0.2675E+00
      7.831  0.3470E-02  0.3473E-02  0.2679E+00  0.2679E+00
      7.943  0.2229E-02  0.2226E-02  0.2681E+00  0.2681E+00
      8.054  0.4018E-02  0.4016E-02  0.2686E+00  0.2686E+00
      8.165  0.7665E-02  0.7655E-02  0.2694E+00  0.2694E+00
      8.276  0.6294E-02  0.6304E-02  0.2701E+00  0.2701E+00
      8.387  0.3675E-02  0.3679E-02  0.2705E+00  0.2705E+00
      8.499  0.1036E-01  0.1036E-01  0.2717E+00  0.2717E+00
      8.610  0.5291E-02  0.5298E-02  0.2723E+00  0.2723E+00
      8.721  0.4489E-02  0.4487E-02  0.2728E+00  0.2728E+00
      8.832  0.3625E-02  0.3626E-02  0.2732E+00  0.2732E+00
      8.944  0.8605E-02  0.8598E-02  0.2741E+00  0.2741E+00
      9.055  0.6519E-02  0.6514E-02  0.2749E+00  0.2748E+00
      9.166  0.1204E-01  0.1204E-01  0.2762E+00  0.2762E+00
      9.277  0.1107E-01  0.1107E-01  0.2774E+00  0.2774E+00
      9.388  0.6974E-02  0.6973E-02  0.2782E+00  0.2782E+00
      9.500  0.1962E-01  0.1961E-01  0.2804E+00  0.2804E+00
      9.611  0.1083E-01  0.1083E-01  0.2816E+00  0.2816E+00
      9.722  0.4949E-02  0.4942E-02  0.2821E+00  0.2821E+00
      9.833  0.6128E-02  0.6133E-02  0.2828E+00  0.2828E+00
      9.944  0.8223E-02  0.8247E-02  0.2837E+00  0.2837E+00
     10.056  0.6070E-02  0.6033E-02  0.2844E+00  0.2844E+00
     10.167  0.3892E-02  0.3598E-02  0.2848E+00  0.2848E+00
     10.278  0.1455E-02  0.1759E-02  0.2850E+00  0.2850E+00
     10.389  0.1956E-04  0.2841E-04  0.2850E+00  0.2850E+00
     10.500  0.6939E-10  0.1445E-09  0.2850E+00  0.2850E+00
     10.612  0.0000E+00  0.0000E+00  0.2850E+00  0.2850E+00
     10.723  0.0000E+00  0.0000E+00  0.2850E+00  0.2850E+00
     10.834  0.0000E+00  0.0000E+00  0.2850E+00  0.2850E+00
     10.945  0.0000E+00  0.0000E+00  0.2850E+00  0.2850E+00
     11.057  0.0000E+00  0.0000E+00  0.2850E+00  0.2850E+00
     11.168  0.0000E+00  0.0000E+00  0.2850E+00  0.2850E+00
     11.279  0.0000E+00  0.0000E+00  0.2850E+00  0.2850E+00
     11.390  0.0000E+00  0.0000E+00  0.2850E+00  0.2850E+00
     11.501  0.0000E+00  0.0000E+00  0.2850E+00  0.2850E+00
     11.613  0.0000E+00  0.0000E+00  0.2850E+00  0.2850E+00
     11.724  0.0000E+00  0.0000E+00  0.2850E+00  0.2850E+00
