       N       E                     dE             d eps       ncg     rms          rms(c)
DAV:   1     0.373179997665E+04    0.37318E+04   -0.15335E+05  9128   0.133E+03
DAV:   2     0.177397619006E+03   -0.35544E+04   -0.32516E+04  9532   0.389E+02
DAV:   3    -0.359865243853E+03   -0.53726E+03   -0.51156E+03 11232   0.164E+02
DAV:   4    -0.384655730124E+03   -0.24790E+02   -0.24351E+02 11416   0.373E+01
DAV:   5    -0.385272209502E+03   -0.61648E+00   -0.61430E+00 11248   0.574E+00    0.132E+02
RMM:   6    -0.289426766984E+03    0.95845E+02   -0.36650E+02  9143   0.386E+01    0.729E+01
RMM:   7    -0.318463458191E+03   -0.29037E+02   -0.78104E+01  9134   0.171E+01    0.717E+01
RMM:   8    -0.297005909396E+03    0.21458E+02   -0.18249E+01  9121   0.919E+00    0.424E+01
RMM:   9    -0.297255859465E+03   -0.24995E+00   -0.27789E+01  9120   0.108E+01    0.348E+01
RMM:  10    -0.292623266844E+03    0.46326E+01   -0.84373E+00  9191   0.574E+00    0.245E+01
RMM:  11    -0.292200542866E+03    0.42272E+00   -0.28395E+00  9126   0.371E+00    0.186E+01
RMM:  12    -0.294839623283E+03   -0.26391E+01   -0.94386E-01  9146   0.211E+00    0.176E+01
RMM:  13    -0.300349598699E+03   -0.55100E+01   -0.17774E+00  9120   0.279E+00    0.103E+01
RMM:  14    -0.307487610756E+03   -0.71380E+01   -0.26706E+00  9123   0.315E+00    0.906E+00
RMM:  15    -0.317419104329E+03   -0.99315E+01   -0.70940E+00  9120   0.473E+00    0.880E+00
RMM:  16    -0.324387084132E+03   -0.69680E+01   -0.76584E+00  9120   0.442E+00    0.621E+00
RMM:  17    -0.326431051667E+03   -0.20440E+01   -0.12717E+00  9132   0.201E+00    0.528E+00
RMM:  18    -0.327728165170E+03   -0.12971E+01   -0.59260E-01  9123   0.121E+00    0.515E+00
RMM:  19    -0.328700329775E+03   -0.97216E+00   -0.38532E-01  9120   0.900E-01    0.489E+00
RMM:  20    -0.329376286826E+03   -0.67596E+00   -0.30938E-01  9121   0.911E-01    0.354E+00
RMM:  21    -0.329606758126E+03   -0.23047E+00   -0.11877E-01  9161   0.619E-01    0.258E+00
RMM:  22    -0.329719407090E+03   -0.11265E+00   -0.28457E-02  9171   0.352E-01    0.226E+00
RMM:  23    -0.329807900523E+03   -0.88493E-01   -0.23713E-02  9126   0.335E-01    0.173E+00
RMM:  24    -0.329844176274E+03   -0.36276E-01   -0.13099E-02  9144   0.239E-01    0.877E-01
RMM:  25    -0.329866376866E+03   -0.22201E-01   -0.42447E-03  9136   0.147E-01    0.506E-01
RMM:  26    -0.329864443943E+03    0.19329E-02   -0.12390E-03  8477   0.763E-02    0.388E-01
RMM:  27    -0.329855835734E+03    0.86082E-02   -0.10132E-03  8561   0.681E-02    0.236E-01
RMM:  28    -0.329845468989E+03    0.10367E-01   -0.55929E-04  7152   0.458E-02    0.131E-01
RMM:  29    -0.329840278432E+03    0.51906E-02   -0.25410E-04  6074   0.329E-02    0.105E-01
RMM:  30    -0.329836602594E+03    0.36758E-02   -0.99204E-05  5582   0.228E-02    0.671E-02
RMM:  31    -0.329838388962E+03   -0.17864E-02   -0.83751E-05  5517   0.184E-02    0.604E-02
RMM:  32    -0.329844233767E+03   -0.58448E-02   -0.13683E-04  5695   0.193E-02    0.503E-02
RMM:  33    -0.329852457556E+03   -0.82238E-02   -0.12425E-04  5710   0.167E-02    0.400E-02
RMM:  34    -0.329858480098E+03   -0.60225E-02   -0.61772E-05  5331   0.126E-02    0.341E-02
RMM:  35    -0.329864620797E+03   -0.61407E-02   -0.73089E-05  5370   0.124E-02    0.296E-02
RMM:  36    -0.329870587380E+03   -0.59666E-02   -0.13046E-04  5685   0.144E-02    0.204E-02
RMM:  37    -0.329873472799E+03   -0.28854E-02   -0.10918E-04  5250   0.127E-02    0.130E-02
RMM:  38    -0.329874187640E+03   -0.71484E-03   -0.39040E-05  4122   0.918E-03    0.103E-02
RMM:  39    -0.329874460049E+03   -0.27241E-03   -0.15715E-05  3310   0.692E-03    0.647E-03
RMM:  40    -0.329874696766E+03   -0.23672E-03   -0.11472E-05  2891   0.594E-03    0.518E-03
RMM:  41    -0.329874815048E+03   -0.11828E-03   -0.72920E-06  2616   0.535E-03    0.398E-03
RMM:  42    -0.329874868614E+03   -0.53566E-04   -0.49913E-06  2279   0.485E-03
   1 F= -.33970682E+03 E0= -.33968720E+03  d E =-.339707E+03  mag=     0.0000
       N       E                     dE             d eps       ncg     rms          rms(c)
DAV:   1    -0.329939339231E+03   -0.64524E-01   -0.36086E+00  9536   0.350E+00    0.551E-01
RMM:   2    -0.329967630426E+03   -0.28291E-01   -0.80458E-02  9042   0.665E-01    0.201E+00
RMM:   3    -0.329949721208E+03    0.17909E-01   -0.54754E-03  9807   0.162E-01    0.107E+00
RMM:   4    -0.329951222055E+03   -0.15008E-02   -0.81804E-04  7901   0.623E-02    0.117E+00
RMM:   5    -0.329950391638E+03    0.83042E-03   -0.13970E-03  8725   0.736E-02    0.103E+00
RMM:   6    -0.329947145947E+03    0.32457E-02   -0.20708E-03  8676   0.863E-02    0.616E-01
RMM:   7    -0.329945330281E+03    0.18157E-02   -0.16637E-03  8411   0.820E-02    0.169E-01
RMM:   8    -0.329945207212E+03    0.12307E-03   -0.21012E-04  5912   0.346E-02    0.100E-01
RMM:   9    -0.329945176481E+03    0.30731E-04   -0.57805E-05  5027   0.222E-02
   2 F= -.33977792E+03 E0= -.33975847E+03  d E =-.710981E-01  mag=     0.0002
       N       E                     dE             d eps       ncg     rms          rms(c)
DAV:   1    -0.329986733869E+03   -0.41527E-01   -0.11717E+01  9256   0.619E+00    0.998E-01
RMM:   2    -0.330062344637E+03   -0.75611E-01   -0.26830E-01  9086   0.123E+00    0.329E+00
RMM:   3    -0.330018683891E+03    0.43661E-01   -0.19485E-02 10030   0.290E-01    0.182E+00
RMM:   4    -0.330027220116E+03   -0.85362E-02   -0.26310E-03  8869   0.111E-01    0.215E+00
RMM:   5    -0.330025461312E+03    0.17588E-02   -0.37479E-03  9046   0.117E-01    0.195E+00
RMM:   6    -0.330015322342E+03    0.10139E-01   -0.58126E-03  9086   0.144E-01    0.130E+00
RMM:   7    -0.330007748077E+03    0.75743E-02   -0.67710E-03  8996   0.162E-01    0.328E-01
RMM:   8    -0.330007296621E+03    0.45146E-03   -0.10447E-03  8146   0.668E-02    0.265E-01
RMM:   9    -0.330007199196E+03    0.97426E-04   -0.12547E-04  5330   0.281E-02
   3 F= -.33984136E+03 E0= -.33982242E+03  d E =-.134544E+00  mag=     0.0007
       N       E                     dE             d eps       ncg     rms          rms(c)
DAV:   1    -0.330007697665E+03   -0.40104E-03   -0.43587E-01  9520   0.118E+00    0.312E-01
RMM:   2    -0.330009005278E+03   -0.13076E-02   -0.10606E-02  8902   0.236E-01    0.265E-01
RMM:   3    -0.330013406562E+03   -0.44013E-02   -0.13223E-03  8441   0.830E-02    0.924E-01
RMM:   4    -0.330009301461E+03    0.41051E-02   -0.47829E-04  7430   0.505E-02    0.354E-01
RMM:   5    -0.330008963911E+03    0.33755E-03   -0.22603E-04  5892   0.382E-02    0.244E-01
RMM:   6    -0.330008884498E+03    0.79413E-04   -0.18165E-04  5534   0.313E-02
   4 F= -.33984332E+03 E0= -.33982456E+03  d E =-.136503E+00  mag=     0.0007
       N       E                     dE             d eps       ncg     rms          rms(c)
DAV:   1    -0.330026428110E+03   -0.17464E-01   -0.22402E+00  9320   0.315E+00    0.385E-01
RMM:   2    -0.330046967251E+03   -0.20539E-01   -0.52933E-02  9042   0.553E-01    0.157E+00
RMM:   3    -0.330032968022E+03    0.13999E-01   -0.39470E-03  9012   0.153E-01    0.699E-01
RMM:   4    -0.330031013816E+03    0.19542E-02   -0.68487E-04  7643   0.624E-02    0.291E-01
RMM:   5    -0.330031058513E+03   -0.44697E-04   -0.38731E-04  7022   0.411E-02
   5 F= -.33986661E+03 E0= -.33984777E+03  d E =-.232825E-01  mag=     0.0006
       N       E                     dE             d eps       ncg     rms          rms(c)
DAV:   1    -0.330022415659E+03    0.85982E-02   -0.15782E+01  9224   0.837E+00    0.936E-01
RMM:   2    -0.330131542695E+03   -0.10913E+00   -0.36379E-01  9106   0.143E+00    0.349E+00
RMM:   3    -0.330063281018E+03    0.68262E-01   -0.24719E-02  9166   0.391E-01    0.157E+00
RMM:   4    -0.330053745731E+03    0.95353E-02   -0.37490E-03  9164   0.140E-01    0.786E-01
RMM:   5    -0.330054421857E+03   -0.67613E-03   -0.16972E-03  8535   0.790E-02    0.819E-01
RMM:   6    -0.330057259705E+03   -0.28378E-02   -0.51687E-03  9098   0.136E-01    0.109E+00
RMM:   7    -0.330051922183E+03    0.53375E-02   -0.30914E-03  8976   0.112E-01    0.209E-01
RMM:   8    -0.330051689834E+03    0.23235E-03   -0.66047E-04  7641   0.562E-02    0.146E-01
RMM:   9    -0.330051697774E+03   -0.79404E-05   -0.10201E-04  5331   0.264E-02
   6 F= -.33989017E+03 E0= -.33987215E+03  d E =-.468450E-01  mag=     0.0005
       N       E                     dE             d eps       ncg     rms          rms(c)
DAV:   1    -0.330060285602E+03   -0.85958E-02   -0.30379E+00  9328   0.356E+00    0.428E-01
RMM:   2    -0.330091951426E+03   -0.31666E-01   -0.79816E-02  9072   0.643E-01    0.210E+00
RMM:   3    -0.330068247219E+03    0.23704E-01   -0.46269E-03  9087   0.177E-01    0.808E-01
RMM:   4    -0.330067031653E+03    0.12156E-02   -0.69352E-04  7788   0.652E-02    0.609E-01
RMM:   5    -0.330067979741E+03   -0.94809E-03   -0.28887E-04  6374   0.385E-02    0.714E-01
RMM:   6    -0.330067983839E+03   -0.40978E-05   -0.37817E-04  6871   0.431E-02
   7 F= -.33990379E+03 E0= -.33988563E+03  d E =-.136273E-01  mag=     0.0005
       N       E                     dE             d eps       ncg     rms          rms(c)
DAV:   1    -0.330067729489E+03    0.25025E-03   -0.10322E-01  9576   0.678E-01    0.237E-01
RMM:   2    -0.330072123143E+03   -0.43937E-02   -0.43640E-03  9058   0.155E-01    0.757E-01
RMM:   3    -0.330068718670E+03    0.34045E-02   -0.10321E-03  8422   0.687E-02    0.393E-01
RMM:   4    -0.330067904151E+03    0.81452E-03   -0.18921E-04  5861   0.341E-02    0.201E-01
RMM:   5    -0.330067727193E+03    0.17696E-03   -0.93011E-05  5081   0.260E-02    0.868E-02
RMM:   6    -0.330067745993E+03   -0.18800E-04   -0.40227E-05  4977   0.184E-02
   8 F= -.33990306E+03 E0= -.33988501E+03  d E =-.128946E-01  mag=     0.0004
       N       E                     dE             d eps       ncg     rms          rms(c)
DAV:   1    -0.330068919081E+03   -0.11919E-02   -0.41803E-01  9240   0.132E+00    0.173E-01
RMM:   2    -0.330070452527E+03   -0.15334E-02   -0.10667E-02  8844   0.236E-01    0.363E-01
RMM:   3    -0.330069772730E+03    0.67980E-03   -0.55482E-04  7267   0.620E-02    0.205E-01
RMM:   4    -0.330069756167E+03    0.16563E-04   -0.53509E-05  5041   0.202E-02
   9 F= -.33990408E+03 E0= -.33988602E+03  d E =-.139141E-01  mag=     0.0004
       N       E                     dE             d eps       ncg     rms          rms(c)
DAV:   1    -0.330073516665E+03   -0.37439E-02   -0.64452E-01  9216   0.165E+00    0.298E-01
RMM:   2    -0.330092974260E+03   -0.19458E-01   -0.17316E-02  9092   0.302E-01    0.158E+00
RMM:   3    -0.330075740986E+03    0.17233E-01   -0.23019E-03  8913   0.110E-01    0.528E-01
RMM:   4    -0.330075260361E+03    0.48063E-03   -0.24555E-04  6252   0.472E-02    0.376E-01
RMM:   5    -0.330075305210E+03   -0.44850E-04   -0.17912E-04  5449   0.366E-02
  10 F= -.33990838E+03 E0= -.33989049E+03  d E =-.429517E-02  mag=     0.0003
       N       E                     dE             d eps       ncg     rms          rms(c)
DAV:   1    -0.330076201282E+03   -0.94092E-03   -0.99355E-02  9584   0.654E-01    0.308E-01
RMM:   2    -0.330089033437E+03   -0.12832E-01   -0.51336E-03  9076   0.166E-01    0.138E+00
RMM:   3    -0.330079422574E+03    0.96109E-02   -0.18419E-03  8573   0.892E-02    0.734E-01
RMM:   4    -0.330076504765E+03    0.29178E-02   -0.35727E-04  6786   0.509E-02    0.281E-01
RMM:   5    -0.330076354541E+03    0.15022E-03   -0.21732E-04  5865   0.358E-02    0.281E-01
RMM:   6    -0.330076115963E+03    0.23858E-03   -0.56516E-05  5012   0.231E-02    0.140E-01
RMM:   7    -0.330076072180E+03    0.43783E-04   -0.62317E-05  4993   0.178E-02
  11 F= -.33990865E+03 E0= -.33989067E+03  d E =-.456918E-02  mag=     0.0002
       N       E                     dE             d eps       ncg     rms          rms(c)
DAV:   1    -0.330076863746E+03   -0.74778E-03   -0.39604E-01  9240   0.129E+00    0.171E-01
RMM:   2    -0.330078035278E+03   -0.11715E-02   -0.99544E-03  8875   0.228E-01    0.303E-01
RMM:   3    -0.330077814065E+03    0.22121E-03   -0.45607E-04  6663   0.554E-02    0.197E-01
RMM:   4    -0.330078273772E+03   -0.45971E-03   -0.11946E-04  5244   0.274E-02    0.374E-01
RMM:   5    -0.330077992934E+03    0.28084E-03   -0.38755E-05  5048   0.202E-02    0.279E-01
RMM:   6    -0.330077934658E+03    0.58276E-04   -0.16061E-04  5427   0.266E-02
  12 F= -.33990953E+03 E0= -.33989165E+03  d E =-.544563E-02  mag=     0.0002
       N       E                     dE             d eps       ncg     rms          rms(c)
DAV:   1    -0.330079776353E+03   -0.17834E-02   -0.40906E-01  9312   0.131E+00    0.187E-01
RMM:   2    -0.330090404275E+03   -0.10628E-01   -0.10401E-02  9070   0.225E-01    0.127E+00
RMM:   3    -0.330080962738E+03    0.94415E-02   -0.75611E-04  7986   0.712E-02    0.352E-01
RMM:   4    -0.330081271794E+03   -0.30906E-03   -0.21502E-04  5900   0.356E-02    0.439E-01
RMM:   5    -0.330081095398E+03    0.17640E-03   -0.43164E-05  5003   0.215E-02    0.368E-01
RMM:   6    -0.330080878975E+03    0.21642E-03   -0.14888E-04  5486   0.271E-02    0.287E-01
RMM:   7    -0.330080452455E+03    0.42652E-03   -0.13312E-04  5279   0.310E-02    0.535E-02
RMM:   8    -0.330080450849E+03    0.16062E-05   -0.31983E-05  4962   0.158E-02
  13 F= -.33991054E+03 E0= -.33989250E+03  d E =-.101426E-02  mag=     0.0001
       N       E                     dE             d eps       ncg     rms          rms(c)
DAV:   1    -0.330081318779E+03   -0.86632E-03   -0.19725E-01  9264   0.905E-01    0.116E-01
RMM:   2    -0.330082370813E+03   -0.10520E-02   -0.47090E-03  8561   0.150E-01    0.361E-01
RMM:   3    -0.330081771789E+03    0.59902E-03   -0.20979E-04  5606   0.391E-02    0.168E-01
RMM:   4    -0.330081988268E+03   -0.21648E-03   -0.76362E-05  5014   0.230E-02    0.261E-01
RMM:   5    -0.330081944055E+03    0.44213E-04   -0.30347E-05  4866   0.169E-02
  14 F= -.33991099E+03 E0= -.33989294E+03  d E =-.146604E-02  mag=     0.0001
       N       E                     dE             d eps       ncg     rms          rms(c)
DAV:   1    -0.330083490089E+03   -0.15018E-02   -0.13676E-01  9404   0.702E-01    0.213E-01
RMM:   2    -0.330098465008E+03   -0.14975E-01   -0.44478E-03  9000   0.138E-01    0.146E+00
RMM:   3    -0.330084114572E+03    0.14350E-01   -0.12519E-03  8470   0.747E-02    0.311E-01
RMM:   4    -0.330083778480E+03    0.33609E-03   -0.17585E-04  5736   0.396E-02    0.187E-01
RMM:   5    -0.330083654156E+03    0.12432E-03   -0.60855E-05  5004   0.238E-02    0.126E-01
RMM:   6    -0.330083600093E+03    0.54063E-04   -0.28198E-05  4802   0.148E-02
  15 F= -.33991149E+03 E0= -.33989352E+03  d E =-.500936E-03  mag=     0.0001
       N       E                     dE             d eps       ncg     rms          rms(c)
DAV:   1    -0.330086607079E+03   -0.29529E-02   -0.12295E+00  9160   0.210E+00    0.276E-01
RMM:   2    -0.330090175434E+03   -0.35684E-02   -0.27169E-02  8910   0.327E-01    0.420E-01
RMM:   3    -0.330089995860E+03    0.17957E-03   -0.17175E-03  8076   0.934E-02    0.469E-01
RMM:   4    -0.330088864833E+03    0.11310E-02   -0.22444E-04  5848   0.362E-02    0.171E-01
RMM:   5    -0.330089030145E+03   -0.16531E-03   -0.17950E-04  5568   0.336E-02    0.258E-01
RMM:   6    -0.330088932879E+03    0.97266E-04   -0.15444E-04  5344   0.311E-02
  16 F= -.33991336E+03 E0= -.33989534E+03  d E =-.236968E-02  mag=     0.0001
       N       E                     dE             d eps       ncg     rms          rms(c)
DAV:   1    -0.330088091742E+03    0.93840E-03   -0.49158E+00  9120   0.419E+00    0.578E-01
RMM:   2    -0.330103508703E+03   -0.15417E-01   -0.10939E-01  9062   0.659E-01    0.891E-01
RMM:   3    -0.330104970295E+03   -0.14616E-02   -0.72401E-03  9080   0.189E-01    0.117E+00
RMM:   4    -0.330097558566E+03    0.74117E-02   -0.11367E-03  8250   0.769E-02    0.393E-01
RMM:   5    -0.330097465260E+03    0.93306E-04   -0.80997E-04  7771   0.582E-02
  17 F= -.33991497E+03 E0= -.33989731E+03  d E =-.397973E-02  mag=     0.0001
       N       E                     dE             d eps       ncg     rms          rms(c)
DAV:   1    -0.330099751591E+03   -0.21930E-02   -0.77633E-01  9168   0.171E+00    0.390E-01
RMM:   2    -0.330154912453E+03   -0.55161E-01   -0.26269E-02  9128   0.350E-01    0.274E+00
RMM:   3    -0.330103432014E+03    0.51480E-01   -0.39892E-03  9058   0.144E-01    0.763E-01
RMM:   4    -0.330100476134E+03    0.29559E-02   -0.77361E-04  8084   0.713E-02    0.373E-01
RMM:   5    -0.330100758677E+03   -0.28254E-03   -0.32037E-04  6625   0.401E-02    0.401E-01
RMM:   6    -0.330100252386E+03    0.50629E-03   -0.31914E-04  6448   0.419E-02    0.239E-01
RMM:   7    -0.330100080077E+03    0.17231E-03   -0.37116E-04  6706   0.422E-02    0.122E-01
RMM:   8    -0.330099981652E+03    0.98425E-04   -0.99050E-05  5076   0.264E-02
  18 F= -.33991566E+03 E0= -.33989789E+03  d E =-.690675E-03  mag=     0.0000
       N       E                     dE             d eps       ncg     rms          rms(c)
DAV:   1    -0.330100072811E+03    0.72654E-05   -0.28272E-03  9336   0.107E-01    0.373E-02
RMM:   2    -0.330100456432E+03   -0.38362E-03   -0.11279E-04  5090   0.263E-02    0.242E-01
RMM:   3    -0.330100082987E+03    0.37345E-03   -0.38377E-05  4956   0.199E-02    0.466E-02
RMM:   4    -0.330100076751E+03    0.62354E-05   -0.11895E-05  4595   0.959E-03
  19 F= -.33991565E+03 E0= -.33989787E+03  d E =-.674659E-03  mag=     0.0000
       N       E                     dE             d eps       ncg     rms          rms(c)
DAV:   1    -0.330100577190E+03   -0.49420E-03   -0.16812E-01  9200   0.881E-01    0.102E-01
RMM:   2    -0.330101624723E+03   -0.10475E-02   -0.40242E-03  8800   0.154E-01    0.334E-01
RMM:   3    -0.330100990598E+03    0.63412E-03   -0.20550E-04  5724   0.406E-02    0.182E-01
RMM:   4    -0.330100942166E+03    0.48432E-04   -0.39987E-05  4920   0.201E-02
  20 F= -.33991630E+03 E0= -.33989847E+03  d E =-.649881E-03  mag=     0.0000
       N       E                     dE             d eps       ncg     rms          rms(c)
DAV:   1    -0.330101087294E+03   -0.96696E-04   -0.35017E-02  9648   0.402E-01    0.150E-01
RMM:   2    -0.330101928482E+03   -0.84119E-03   -0.10842E-03  8422   0.784E-02    0.356E-01
RMM:   3    -0.330101160887E+03    0.76759E-03   -0.15137E-04  5344   0.320E-02    0.142E-01
RMM:   4    -0.330101351099E+03   -0.19021E-03   -0.71365E-05  5028   0.224E-02    0.212E-01
RMM:   5    -0.330101238117E+03    0.11298E-03   -0.11681E-04  5126   0.248E-02    0.176E-01
RMM:   6    -0.330101091801E+03    0.14632E-03   -0.83548E-05  4962   0.266E-02    0.409E-02
RMM:   7    -0.330101088187E+03    0.36137E-05   -0.21821E-05  4724   0.130E-02
  21 F= -.33991635E+03 E0= -.33989854E+03  d E =-.697399E-03  mag=     0.0000
       N       E                     dE             d eps       ncg     rms          rms(c)
DAV:   1    -0.330101984239E+03   -0.89244E-03   -0.14394E-01  9232   0.788E-01    0.821E-02
RMM:   2    -0.330102409408E+03   -0.42517E-03   -0.29151E-03  8576   0.125E-01    0.151E-01
RMM:   3    -0.330102334439E+03    0.74968E-04   -0.13831E-04  5249   0.344E-02
  22 F= -.33991697E+03 E0= -.33989914E+03  d E =-.625034E-03  mag=     0.0000
