<?xml version="1.0" encoding="ISO-8859-1"?>
<modeling>
 <generator>
  <i name="program" type="string">vasp </i>
  <i name="version" type="string">5.4.1  </i>
  <i name="subversion" type="string">08Jul2015 (build Apr 24 2014 00:09:29) complex standard with constrain (TS)     parallel </i>
  <i name="platform" type="string">IBM of Center for Computational Chemistry </i>
  <i name="date" type="string">2017 10 22 </i>
  <i name="time" type="string">18:26:45 </i>
 </generator>
 <incar>
  <i type="string" name="SYSTEM"> IrO2_suf110_d3_2x1x4_2fix</i>
  <i type="int" name="ISTART">     0</i>
  <i type="string" name="PREC">accurate       ! [low/medium/high/norma</i>
  <i type="string" name="ALGO">Fast</i>
  <i type="int" name="ISPIN">     2</i>
  <i type="int" name="NELM">   300</i>
  <i type="int" name="NELMIN">     3</i>
  <i type="int" name="IBRION">     2</i>
  <i name="EDIFFG">     -0.05000000</i>
  <i type="int" name="NSW">   800</i>
  <i type="int" name="ISIF">     2</i>
  <i type="int" name="ISYM">     0</i>
  <i name="ENCUT">    500.00000000</i>
  <i name="POTIM">      0.10000000</i>
  <i type="string" name="LREAL"> A    ! aproximace, T zpomaluje, ale pre</i>
  <i type="int" name="ISMEAR">     0</i>
  <i name="SIGMA">      0.05000000</i>
  <i type="int" name="NWRITE">     2</i>
  <i type="logical" name="LWAVE"> F  </i>
  <i type="logical" name="LCHARG"> F  </i>
  <v type="int" name="KPOINT_BSE">    -1     0     0     0</v>
  <i type="int" name="NELM">   300</i>
 </incar>
 <kpoints>
  <generation param="Gamma">
   <v type="int" name="divisions">       4        4        1 </v>
   <v name="usershift">      0.00000000       0.00000000       0.00000000 </v>
   <v name="genvec1">      0.25000000       0.00000000       0.00000000 </v>
   <v name="genvec2">      0.00000000       0.25000000       0.00000000 </v>
   <v name="genvec3">      0.00000000       0.00000000       1.00000000 </v>
   <v name="shift">      0.00000000       0.00000000       0.00000000 </v>
  </generation>
  <varray name="kpointlist" >
   <v>       0.00000000       0.00000000       0.00000000 </v>
   <v>       0.25000000       0.00000000       0.00000000 </v>
   <v>       0.50000000       0.00000000       0.00000000 </v>
   <v>       0.00000000       0.25000000       0.00000000 </v>
   <v>       0.25000000       0.25000000       0.00000000 </v>
   <v>       0.50000000       0.25000000       0.00000000 </v>
   <v>      -0.25000000       0.25000000       0.00000000 </v>
   <v>       0.00000000       0.50000000       0.00000000 </v>
   <v>       0.25000000       0.50000000       0.00000000 </v>
   <v>       0.50000000       0.50000000       0.00000000 </v>
  </varray>
  <varray name="weights" >
   <v>       0.06250000 </v>
   <v>       0.12500000 </v>
   <v>       0.06250000 </v>
   <v>       0.12500000 </v>
   <v>       0.12500000 </v>
   <v>       0.12500000 </v>
   <v>       0.12500000 </v>
   <v>       0.06250000 </v>
   <v>       0.12500000 </v>
   <v>       0.06250000 </v>
  </varray>
 </kpoints>
 <parameters>
  <separator name="general" >
   <i type="string" name="SYSTEM">IrO2_suf110_d3_2x1x4_2fix</i>
   <i type="logical" name="LCOMPAT"> F  </i>
  </separator>
  <separator name="electronic" >
   <i type="string" name="PREC">accura</i>
   <i name="ENMAX">    500.00000000</i>
   <i name="ENAUG">    605.39200000</i>
   <i name="EDIFF">      0.00010000</i>
   <i type="int" name="IALGO">    68</i>
   <i type="int" name="IWAVPR">    11</i>
   <i type="int" name="NBANDS">   228</i>
   <i name="NELECT">    336.00000000</i>
   <i type="int" name="TURBO">     0</i>
   <i type="int" name="IRESTART">     0</i>
   <i type="int" name="NREBOOT">     0</i>
   <i type="int" name="NMIN">     0</i>
   <i name="EREF">      0.00000000</i>
   <separator name="electronic smearing" >
    <i type="int" name="ISMEAR">     0</i>
    <i name="SIGMA">      0.05000000</i>
    <i name="KSPACING">      0.50000000</i>
    <i type="logical" name="KGAMMA"> T  </i>
   </separator>
   <separator name="electronic projectors" >
    <i type="logical" name="LREAL"> T  </i>
    <v name="ROPT">     -0.00025000     -0.00025000</v>
    <i type="int" name="LMAXPAW">  -100</i>
    <i type="int" name="LMAXMIX">     2</i>
    <i type="logical" name="NLSPLINE"> F  </i>
   </separator>
   <separator name="electronic startup" >
    <i type="int" name="ISTART">     0</i>
    <i type="int" name="ICHARG">     2</i>
    <i type="int" name="INIWAV">     1</i>
   </separator>
   <separator name="electronic spin" >
    <i type="int" name="ISPIN">     2</i>
    <i type="logical" name="LNONCOLLINEAR"> F  </i>
    <v name="MAGMOM">      1.00000000      1.00000000      1.00000000      1.00000000      1.00000000      1.00000000      1.00000000      1.00000000      1.00000000      1.00000000      1.00000000      1.00000000      1.00000000      1.00000000      1.00000000      1.00000000      1.00000000      1.00000000      1.00000000      1.00000000
      1.00000000      1.00000000      1.00000000      1.00000000      1.00000000      1.00000000      1.00000000      1.00000000      1.00000000      1.00000000      1.00000000      1.00000000      1.00000000      1.00000000      1.00000000      1.00000000      1.00000000      1.00000000      1.00000000      1.00000000
      1.00000000      1.00000000      1.00000000      1.00000000      1.00000000      1.00000000      1.00000000      1.00000000</v>
    <i name="NUPDOWN">     -1.00000000</i>
    <i type="logical" name="LSORBIT"> F  </i>
    <v name="SAXIS">      0.00000000      0.00000000      1.00000000</v>
    <i type="logical" name="LSPIRAL"> F  </i>
    <v name="QSPIRAL">      0.00000000      0.00000000      0.00000000</v>
    <i type="logical" name="LZEROZ"> F  </i>
   </separator>
   <separator name="electronic exchange-correlation" >
    <i type="logical" name="LASPH"> F  </i>
    <i type="logical" name="LMETAGGA"> F  </i>
   </separator>
   <separator name="electronic convergence" >
    <i type="int" name="NELM">   300</i>
    <i type="int" name="NELMDL">    -5</i>
    <i type="int" name="NELMIN">     3</i>
    <i name="ENINI">    500.00000000</i>
    <separator name="electronic convergence detail" >
     <i type="logical" name="LDIAG"> T  </i>
     <i type="logical" name="LSUBROT"> F  </i>
     <i name="WEIMIN">      0.00100000</i>
     <i name="EBREAK">      0.00000011</i>
     <i name="DEPER">      0.30000000</i>
     <i type="int" name="NRMM">     4</i>
     <i name="TIME">      0.40000000</i>
    </separator>
   </separator>
   <separator name="electronic mixer" >
    <i name="AMIX">      0.40000000</i>
    <i name="BMIX">      1.00000000</i>
    <i name="AMIN">      0.10000000</i>
    <i name="AMIX_MAG">      1.60000000</i>
    <i name="BMIX_MAG">      1.00000000</i>
    <separator name="electronic mixer details" >
     <i type="int" name="IMIX">     4</i>
     <i type="logical" name="MIXFIRST"> F  </i>
     <i type="int" name="MAXMIX">   -45</i>
     <i name="WC">    100.00000000</i>
     <i type="int" name="INIMIX">     1</i>
     <i type="int" name="MIXPRE">     1</i>
     <i type="int" name="MREMOVE">     5</i>
    </separator>
   </separator>
   <separator name="electronic dipolcorrection" >
    <i type="logical" name="LDIPOL"> F  </i>
    <i type="logical" name="LMONO"> F  </i>
    <i type="int" name="IDIPOL">     0</i>
    <i name="EPSILON">      1.00000000</i>
    <v name="DIPOL">   -100.00000000   -100.00000000   -100.00000000</v>
    <i name="EFIELD">      0.00000000</i>
   </separator>
  </separator>
  <separator name="grids" >
   <i type="int" name="NGX">    48</i>
   <i type="int" name="NGY">    48</i>
   <i type="int" name="NGZ">   162</i>
   <i type="int" name="NGXF">    96</i>
   <i type="int" name="NGYF">    96</i>
   <i type="int" name="NGZF">   324</i>
   <i type="logical" name="ADDGRID"> F  </i>
  </separator>
  <separator name="ionic" >
   <i type="int" name="NSW">   800</i>
   <i type="int" name="IBRION">     2</i>
   <i type="int" name="ISIF">     2</i>
   <i name="PSTRESS">      0.00000000</i>
   <i name="EDIFFG">     -0.05000000</i>
   <i type="int" name="NFREE">     1</i>
   <i name="POTIM">      0.10000000</i>
   <i name="SMASS">     -3.00000000</i>
   <i name="SCALEE">      1.00000000</i>
  </separator>
  <separator name="ionic md" >
   <i name="TEBEG">      0.00010000</i>
   <i name="TEEND">      0.00010000</i>
   <i type="int" name="NBLOCK">     1</i>
   <i type="int" name="KBLOCK">   800</i>
   <i type="int" name="NPACO">   256</i>
   <i name="APACO">     16.00000000</i>
  </separator>
  <separator name="symmetry" >
   <i type="int" name="ISYM">     0</i>
   <i name="SYMPREC">      0.00001000</i>
  </separator>
  <separator name="dos" >
   <i type="logical" name="LORBIT"> F  </i>
   <v name="RWIGS">     -1.00000000     -1.00000000</v>
   <i type="int" name="NEDOS">   301</i>
   <i name="EMIN">     10.00000000</i>
   <i name="EMAX">    -10.00000000</i>
   <i name="EFERMI">      0.00000000</i>
  </separator>
  <separator name="writing" >
   <i type="int" name="NWRITE">     2</i>
   <i type="logical" name="LWAVE"> F  </i>
   <i type="logical" name="LCHARG"> F  </i>
   <i type="logical" name="LPARD"> F  </i>
   <i type="logical" name="LVTOT"> F  </i>
   <i type="logical" name="LVHAR"> F  </i>
   <i type="logical" name="LELF"> F  </i>
   <i type="logical" name="LOPTICS"> F  </i>
   <v name="STM">      0.00000000      0.00000000      0.00000000      0.00000000      0.00000000      0.00000000      0.00000000</v>
  </separator>
  <separator name="performance" >
   <i type="int" name="NPAR">     4</i>
   <i type="int" name="NSIM">     4</i>
   <i type="int" name="NBLK">    -1</i>
   <i type="logical" name="LPLANE"> T  </i>
   <i type="logical" name="LSCALAPACK"> T  </i>
   <i type="logical" name="LSCAAWARE"> F  </i>
   <i type="logical" name="LSCALU"> F  </i>
   <i type="logical" name="LASYNC"> F  </i>
   <i type="logical" name="LORBITALREAL"> F  </i>
  </separator>
  <separator name="miscellaneous" >
   <i type="int" name="IDIOT">     3</i>
   <i type="logical" name="LMUSIC"> F  </i>
   <v name="POMASS">     16.00000000    192.22000000</v>
   <v name="DARWINR">      0.00000000      0.00000000</v>
   <v name="DARWINV">      1.00000000      1.00000000</v>
   <i type="logical" name="LCORR"> T  </i>
  </separator>
  <i type="logical" name="GGA_COMPAT"> T  </i>
  <i type="logical" name="LBERRY"> F  </i>
  <i type="int" name="ICORELEVEL">     0</i>
  <i type="logical" name="LDAU"> F  </i>
  <i type="int" name="I_CONSTRAINED_M">     0</i>
  <separator name="electronic exchange-correlation" >
   <i type="string" name="GGA">--</i>
   <i type="int" name="VOSKOWN">     0</i>
   <i type="logical" name="LHFCALC"> F  </i>
   <i type="string" name="PRECFOCK"></i>
   <i type="logical" name="LSYMGRAD"> F  </i>
   <i type="logical" name="LHFONE"> F  </i>
   <i type="logical" name="LRHFCALC"> F  </i>
   <i type="logical" name="LTHOMAS"> F  </i>
   <i type="logical" name="LMODELHF"> F  </i>
   <i name="ENCUT4O">     -1.00000000</i>
   <i type="int" name="EXXOEP">     0</i>
   <i type="int" name="FOURORBIT">     0</i>
   <i name="AEXX">      0.00000000</i>
   <i name="HFALPHA">      0.00000000</i>
   <i name="MCALPHA">      0.00000000</i>
   <i name="ALDAX">      1.00000000</i>
   <i name="AGGAX">      1.00000000</i>
   <i name="ALDAC">      1.00000000</i>
   <i name="AGGAC">      1.00000000</i>
   <i type="int" name="NKREDX">     1</i>
   <i type="int" name="NKREDY">     1</i>
   <i type="int" name="NKREDZ">     1</i>
   <i type="logical" name="SHIFTRED"> F  </i>
   <i type="logical" name="ODDONLY"> F  </i>
   <i type="logical" name="EVENONLY"> F  </i>
   <i type="int" name="LMAXFOCK">     0</i>
   <i type="int" name="NMAXFOCKAE">     0</i>
   <i type="logical" name="LFOCKAEDFT"> F  </i>
   <i name="HFSCREEN">      0.00000000</i>
   <i name="HFSCREENC">      0.00000000</i>
   <i type="int" name="NBANDSGWLOW">     0</i>
  </separator>
  <separator name="vdW DFT" >
   <i type="logical" name="LUSE_VDW"> F  </i>
   <i name="Zab_VDW">     -0.84910000</i>
   <i name="PARAM1">      0.12340000</i>
   <i name="PARAM2">      1.00000000</i>
   <i name="PARAM3">      0.00000000</i>
  </separator>
  <separator name="model GW" >
   <i type="int" name="MODEL_GW">     0</i>
   <i name="MODEL_EPS0">     11.18121410</i>
   <i name="MODEL_ALPHA">      1.00000000</i>
  </separator>
  <separator name="linear response parameters" >
   <i type="logical" name="LEPSILON"> F  </i>
   <i type="logical" name="LRPA"> F  </i>
   <i type="logical" name="LNABLA"> F  </i>
   <i type="logical" name="LVEL"> F  </i>
   <i type="int" name="KINTER">     0</i>
   <i name="CSHIFT">      0.10000000</i>
   <i name="OMEGAMAX">     -1.00000000</i>
   <i name="DEG_THRESHOLD">      0.00200000</i>
  </separator>
  <separator name="orbital magnetization" >
   <i type="logical" name="NUCIND"> F  </i>
   <v name="MAGPOS">      0.00000000      0.00000000      0.00000000</v>
   <i type="logical" name="LNICSALL"> T  </i>
   <i type="logical" name="ORBITALMAG"> F  </i>
   <i type="logical" name="LMAGBLOCH"> F  </i>
   <i type="logical" name="LCHIMAG"> F  </i>
   <i type="logical" name="LGAUGE"> T  </i>
   <i type="int" name="MAGATOM">     0</i>
   <v name="MAGDIPOL">      0.00000000      0.00000000      0.00000000</v>
   <v name="AVECCONST">      0.00000000      0.00000000      0.00000000</v>
  </separator>
  <separator name="response functions" >
   <i type="logical" name="LADDER"> F  </i>
   <i type="logical" name="LFXC"> F  </i>
   <i type="logical" name="LHARTREE"> T  </i>
   <i type="int" name="IBSE">     0</i>
   <v type="int" name="KPOINT">    -1     0     0     0</v>
   <i type="logical" name="LTCTE"> F  </i>
   <i type="logical" name="LTETE"> F  </i>
   <i type="logical" name="LTRIPLET"> F  </i>
   <i type="logical" name="LFXCEPS"> F  </i>
   <i type="logical" name="LFXHEG"> F  </i>
   <i type="int" name="NATURALO">     0</i>
   <i type="logical" name="L2ORDER"> F  </i>
   <i type="logical" name="LUSEW"> F  </i>
   <i name="ENCUTGW">     -2.00000000</i>
   <i name="ENCUTGWSOFT">     -2.00000000</i>
   <i name="ENCUTLF">     -1.00000000</i>
   <i type="int" name="LMAXMP2">    -1</i>
   <i name="SCISSOR">      0.00000000</i>
   <i type="int" name="NOMEGA">     0</i>
   <i type="int" name="NOMEGAR">     0</i>
   <i type="int" name="NBANDSGW">    -1</i>
   <i type="int" name="NBANDSO">    -1</i>
   <i type="int" name="NBANDSV">    -1</i>
   <i type="int" name="NELM">   300</i>
   <i type="int" name="NELMHF">     1</i>
   <i type="int" name="DIM">     3</i>
   <i type="int" name="ANTIRES">     0</i>
   <i name="OMEGAMAX">    -30.00000000</i>
   <i name="OMEGAMIN">    -30.00000000</i>
   <i name="OMEGATL">   -200.00000000</i>
   <i type="int" name="OMEGAGRID">     0</i>
   <i name="CSHIFT">     -0.10000000</i>
   <i type="logical" name="SELFENERGY"> F  </i>
   <i type="logical" name="LSPECTRAL"> F  </i>
   <i type="logical" name="LSPECTRALGW"> F  </i>
   <i type="logical" name="LSINGLES"> F  </i>
   <i type="logical" name="LFERMIGW"> F  </i>
   <i type="logical" name="ODDONLYGW"> F  </i>
   <i type="logical" name="EVENONLYGW"> F  </i>
   <i type="int" name="NKREDLFX">     1</i>
   <i type="int" name="NKREDLFY">     1</i>
   <i type="int" name="NKREDLFZ">     1</i>
   <i type="int" name="MAXMEM">  1800</i>
   <i type="int" name="TELESCOPE">     0</i>
   <i type="int" name="TAUPAR">     1</i>
   <i type="int" name="OMEGAPAR">    -1</i>
   <i name="LAMBDA">      1.00000000</i>
  </separator>
  <separator name="External order field" >
   <i name="OFIELD_KAPPA">      0.00000000</i>
   <v name="OFIELD_K">      0.00000000      0.00000000      0.00000000</v>
   <i name="OFIELD_Q6_NEAR">      0.00000000</i>
   <i name="OFIELD_Q6_FAR">      0.00000000</i>
   <i name="OFIELD_A">      0.00000000</i>
  </separator>
 </parameters>
 <atominfo>
  <atoms>      48 </atoms>
  <types>       2 </types>
  <array name="atoms" >
   <dimension dim="1">ion</dimension>
   <field type="string">element</field>
   <field type="int">atomtype</field>
   <set>
    <rc><c>O </c><c>   1</c></rc>
    <rc><c>O </c><c>   1</c></rc>
    <rc><c>O </c><c>   1</c></rc>
    <rc><c>O </c><c>   1</c></rc>
    <rc><c>O </c><c>   1</c></rc>
    <rc><c>O </c><c>   1</c></rc>
    <rc><c>O </c><c>   1</c></rc>
    <rc><c>O </c><c>   1</c></rc>
    <rc><c>O </c><c>   1</c></rc>
    <rc><c>O </c><c>   1</c></rc>
    <rc><c>O </c><c>   1</c></rc>
    <rc><c>O </c><c>   1</c></rc>
    <rc><c>O </c><c>   1</c></rc>
    <rc><c>O </c><c>   1</c></rc>
    <rc><c>O </c><c>   1</c></rc>
    <rc><c>O </c><c>   1</c></rc>
    <rc><c>O </c><c>   1</c></rc>
    <rc><c>O </c><c>   1</c></rc>
    <rc><c>O </c><c>   1</c></rc>
    <rc><c>O </c><c>   1</c></rc>
    <rc><c>O </c><c>   1</c></rc>
    <rc><c>O </c><c>   1</c></rc>
    <rc><c>O </c><c>   1</c></rc>
    <rc><c>O </c><c>   1</c></rc>
    <rc><c>O </c><c>   1</c></rc>
    <rc><c>O </c><c>   1</c></rc>
    <rc><c>O </c><c>   1</c></rc>
    <rc><c>O </c><c>   1</c></rc>
    <rc><c>O </c><c>   1</c></rc>
    <rc><c>O </c><c>   1</c></rc>
    <rc><c>O </c><c>   1</c></rc>
    <rc><c>O </c><c>   1</c></rc>
    <rc><c>Ir</c><c>   2</c></rc>
    <rc><c>Ir</c><c>   2</c></rc>
    <rc><c>Ir</c><c>   2</c></rc>
    <rc><c>Ir</c><c>   2</c></rc>
    <rc><c>Ir</c><c>   2</c></rc>
    <rc><c>Ir</c><c>   2</c></rc>
    <rc><c>Ir</c><c>   2</c></rc>
    <rc><c>Ir</c><c>   2</c></rc>
    <rc><c>Ir</c><c>   2</c></rc>
    <rc><c>Ir</c><c>   2</c></rc>
    <rc><c>Ir</c><c>   2</c></rc>
    <rc><c>Ir</c><c>   2</c></rc>
    <rc><c>Ir</c><c>   2</c></rc>
    <rc><c>Ir</c><c>   2</c></rc>
    <rc><c>Ir</c><c>   2</c></rc>
    <rc><c>Ir</c><c>   2</c></rc>
   </set>
  </array>
  <array name="atomtypes" >
   <dimension dim="1">type</dimension>
   <field type="int">atomspertype</field>
   <field type="string">element</field>
   <field>mass</field>
   <field>valence</field>
   <field type="string">pseudopotential</field>
   <set>
    <rc><c>  32</c><c>O </c><c>     16.00000000</c><c>      6.00000000</c><c>  PAW_PBE O 08Apr2002                   </c></rc>
    <rc><c>  16</c><c>Ir</c><c>    192.22000000</c><c>      9.00000000</c><c>  PAW_PBE Ir 06Sep2000                  </c></rc>
   </set>
  </array>
 </atominfo>
 <structure name="initialpos" >
  <crystal>
   <varray name="basis" >
    <v>       0.00000000       0.00000000       6.36215693 </v>
    <v>       4.51451122      -4.51451122       0.00000000 </v>
    <v>      15.57162157      15.57162157       0.00000000 </v>
   </varray>
   <i name="volume">    894.49712776 </i>
   <varray name="rec_basis" >
    <v>       0.00000000       0.00000000       0.15717940 </v>
    <v>       0.11075396      -0.11075396       0.00000000 </v>
    <v>       0.03210969       0.03210969       0.00000000 </v>
   </varray>
  </crystal>
  <varray name="positions" >
   <v>       0.08911189       0.35545641       0.00000000 </v>
   <v>       0.58911189       0.35545641       0.00000000 </v>
   <v>       0.33911189       0.04692641       0.05551082 </v>
   <v>       0.83911189       0.04692641       0.05551082 </v>
   <v>       0.33911189       0.66398641       0.05551082 </v>
   <v>       0.83911189       0.66398641       0.05551082 </v>
   <v>       0.08911189       0.35545641       0.11102164 </v>
   <v>       0.58911189       0.35545641       0.11102164 </v>
   <v>       0.08911189       0.85545641       0.14495957 </v>
   <v>       0.58911189       0.85545641       0.14495957 </v>
   <v>       0.33911189       0.16398641       0.20047039 </v>
   <v>       0.83911189       0.16398641       0.20047039 </v>
   <v>       0.33911189       0.54692641       0.20047039 </v>
   <v>       0.83911189       0.54692641       0.20047039 </v>
   <v>       0.08911189       0.85545641       0.25598121 </v>
   <v>       0.58911189       0.85545641       0.25598121 </v>
   <v>       0.08911189       0.35545641       0.28991915 </v>
   <v>       0.58911189       0.35545641       0.28991915 </v>
   <v>       0.33911189       0.04692641       0.34542996 </v>
   <v>       0.83911189       0.04692641       0.34542996 </v>
   <v>       0.33911189       0.66398641       0.34542996 </v>
   <v>       0.83911189       0.66398641       0.34542996 </v>
   <v>       0.08911189       0.35545641       0.40094078 </v>
   <v>       0.58911189       0.35545641       0.40094078 </v>
   <v>       0.08911189       0.85545641       0.43487872 </v>
   <v>       0.58911189       0.85545641       0.43487872 </v>
   <v>       0.33911189       0.16398641       0.49038954 </v>
   <v>       0.83911189       0.16398641       0.49038954 </v>
   <v>       0.33911189       0.54692641       0.49038954 </v>
   <v>       0.83911189       0.54692641       0.49038954 </v>
   <v>       0.08911189       0.85545641       0.54590036 </v>
   <v>       0.58911189       0.85545641       0.54590036 </v>
   <v>       0.33911189       0.35545641       0.05551082 </v>
   <v>       0.83911189       0.35545641       0.05551082 </v>
   <v>       0.08911189       0.85545641       0.05551082 </v>
   <v>       0.58911189       0.85545641       0.05551082 </v>
   <v>       0.08911189       0.35545641       0.20047039 </v>
   <v>       0.58911189       0.35545641       0.20047039 </v>
   <v>       0.33911189       0.85545641       0.20047039 </v>
   <v>       0.83911189       0.85545641       0.20047039 </v>
   <v>       0.33911189       0.35545641       0.34542996 </v>
   <v>       0.83911189       0.35545641       0.34542996 </v>
   <v>       0.08911189       0.85545641       0.34542996 </v>
   <v>       0.58911189       0.85545641       0.34542996 </v>
   <v>       0.08911189       0.35545641       0.49038954 </v>
   <v>       0.58911189       0.35545641       0.49038954 </v>
   <v>       0.33911189       0.85545641       0.49038954 </v>
   <v>       0.83911189       0.85545641       0.49038954 </v>
  </varray>
  <varray name="selective"  type="logical" >
   <v type="logical" >  F  F  F </v>
   <v type="logical" >  F  F  F </v>
   <v type="logical" >  F  F  F </v>
   <v type="logical" >  F  F  F </v>
   <v type="logical" >  F  F  F </v>
   <v type="logical" >  F  F  F </v>
   <v type="logical" >  F  F  F </v>
   <v type="logical" >  F  F  F </v>
   <v type="logical" >  F  F  F </v>
   <v type="logical" >  F  F  F </v>
   <v type="logical" >  F  F  F </v>
   <v type="logical" >  F  F  F </v>
   <v type="logical" >  F  F  F </v>
   <v type="logical" >  F  F  F </v>
   <v type="logical" >  F  F  F </v>
   <v type="logical" >  F  F  F </v>
   <v type="logical" >  T  T  T </v>
   <v type="logical" >  T  T  T </v>
   <v type="logical" >  T  T  T </v>
   <v type="logical" >  T  T  T </v>
   <v type="logical" >  T  T  T </v>
   <v type="logical" >  T  T  T </v>
   <v type="logical" >  T  T  T </v>
   <v type="logical" >  T  T  T </v>
   <v type="logical" >  T  T  T </v>
   <v type="logical" >  T  T  T </v>
   <v type="logical" >  T  T  T </v>
   <v type="logical" >  T  T  T </v>
   <v type="logical" >  T  T  T </v>
   <v type="logical" >  T  T  T </v>
   <v type="logical" >  T  T  T </v>
   <v type="logical" >  T  T  T </v>
   <v type="logical" >  F  F  F </v>
   <v type="logical" >  F  F  F </v>
   <v type="logical" >  F  F  F </v>
   <v type="logical" >  F  F  F </v>
   <v type="logical" >  F  F  F </v>
   <v type="logical" >  F  F  F </v>
   <v type="logical" >  F  F  F </v>
   <v type="logical" >  F  F  F </v>
   <v type="logical" >  T  T  T </v>
   <v type="logical" >  T  T  T </v>
   <v type="logical" >  T  T  T </v>
   <v type="logical" >  T  T  T </v>
   <v type="logical" >  T  T  T </v>
   <v type="logical" >  T  T  T </v>
   <v type="logical" >  T  T  T </v>
   <v type="logical" >  T  T  T </v>
  </varray>
  <nose>
   <v>      -3.00000000       0.00000000       0.00010000       0.00010000 </v>
  </nose>
 </structure>
 <calculation>
  <scstep>
   <time name="dav">   28.66   28.67</time>
   <time name="total">   28.97   28.99</time>
   <energy>
    <i name="alphaZ">   1039.80595180 </i>
    <i name="ewald">  64053.19466156 </i>
    <i name="hartreedc"> -87126.31877318 </i>
    <i name="XCdc">    621.25306716 </i>
    <i name="pawpsdc">  19905.99098173 </i>
    <i name="pawaedc"> -19318.37474755 </i>
    <i name="eentropy">     -0.02743830 </i>
    <i name="bandstr">   1757.96615959 </i>
    <i name="atom">  22798.31011382 </i>
    <i name="e_fr_energy">   3731.79997665 </i>
    <i name="e_wo_entrp">   3731.82741494 </i>
    <i name="e_0_energy">   3731.81369579 </i>
   </energy>
  </scstep>
  <scstep>
   <time name="dav">   29.70   29.71</time>
   <time name="total">   29.71   29.73</time>
   <energy>
    <i name="e_fr_energy">    177.39761901 </i>
    <i name="e_wo_entrp">    177.42184251 </i>
    <i name="e_0_energy">    177.40973076 </i>
   </energy>
  </scstep>
  <scstep>
   <time name="dav">   33.69   33.70</time>
   <time name="total">   33.69   34.45</time>
   <energy>
    <i name="e_fr_energy">   -359.86524385 </i>
    <i name="e_wo_entrp">   -359.83344284 </i>
    <i name="e_0_energy">   -359.84934335 </i>
   </energy>
  </scstep>
  <scstep>
   <time name="dav">   34.09   34.10</time>
   <time name="total">   34.09   34.91</time>
   <energy>
    <i name="e_fr_energy">   -384.65573012 </i>
    <i name="e_wo_entrp">   -384.62543204 </i>
    <i name="e_0_energy">   -384.64058108 </i>
   </energy>
  </scstep>
  <scstep>
   <time name="dav">   33.70   33.71</time>
   <time name="total">   34.62   34.68</time>
   <energy>
    <i name="e_fr_energy">   -385.27220950 </i>
    <i name="e_wo_entrp">   -385.24192684 </i>
    <i name="e_0_energy">   -385.25706817 </i>
   </energy>
  </scstep>
  <scstep>
   <time name="diag">    4.81    4.82</time>
   <time name="diis">   15.74   15.74</time>
   <time name="orth">    0.97    0.97</time>
   <time name="total">   22.74   23.48</time>
   <energy>
    <i name="e_fr_energy">   -289.42676698 </i>
    <i name="e_wo_entrp">   -289.39744896 </i>
    <i name="e_0_energy">   -289.41210797 </i>
   </energy>
  </scstep>
  <scstep>
   <time name="diag">    4.81    4.81</time>
   <time name="diis">   15.76   15.76</time>
   <time name="orth">    0.97    0.97</time>
   <time name="total">   22.76   23.25</time>
   <energy>
    <i name="e_fr_energy">   -318.46345819 </i>
    <i name="e_wo_entrp">   -318.42646909 </i>
    <i name="e_0_energy">   -318.44496364 </i>
   </energy>
  </scstep>
  <scstep>
   <time name="diag">    4.82    4.82</time>
   <time name="diis">   15.73   15.73</time>
   <time name="orth">    0.97    0.97</time>
   <time name="total">   22.73   23.22</time>
   <energy>
    <i name="e_fr_energy">   -297.00590940 </i>
    <i name="e_wo_entrp">   -296.95731028 </i>
    <i name="e_0_energy">   -296.98160984 </i>
   </energy>
  </scstep>
  <scstep>
   <time name="diag">    4.81    4.81</time>
   <time name="diis">   15.72   15.72</time>
   <time name="orth">    0.97    0.97</time>
   <time name="total">   22.71   22.72</time>
   <energy>
    <i name="e_fr_energy">   -297.25585947 </i>
    <i name="e_wo_entrp">   -297.21883946 </i>
    <i name="e_0_energy">   -297.23734946 </i>
   </energy>
  </scstep>
  <scstep>
   <time name="diag">    4.81    4.81</time>
   <time name="diis">   15.80   15.81</time>
   <time name="orth">    0.97    0.97</time>
   <time name="total">   22.80   22.86</time>
   <energy>
    <i name="e_fr_energy">   -292.62326684 </i>
    <i name="e_wo_entrp">   -292.59362432 </i>
    <i name="e_0_energy">   -292.60844558 </i>
   </energy>
  </scstep>
  <scstep>
   <time name="diag">    4.80    4.80</time>
   <time name="diis">   15.73   15.74</time>
   <time name="orth">    0.97    0.98</time>
   <time name="total">   22.72   23.06</time>
   <energy>
    <i name="e_fr_energy">   -292.20054287 </i>
    <i name="e_wo_entrp">   -292.16801992 </i>
    <i name="e_0_energy">   -292.18428139 </i>
   </energy>
  </scstep>
  <scstep>
   <time name="diag">    4.81    4.81</time>
   <time name="diis">   15.75   15.76</time>
   <time name="orth">    0.97    0.97</time>
   <time name="total">   22.75   22.78</time>
   <energy>
    <i name="e_fr_energy">   -294.83962328 </i>
    <i name="e_wo_entrp">   -294.80053149 </i>
    <i name="e_0_energy">   -294.82007739 </i>
   </energy>
  </scstep>
  <scstep>
   <time name="diag">    4.80    4.80</time>
   <time name="diis">   15.71   15.72</time>
   <time name="orth">    0.97    0.97</time>
   <time name="total">   22.69   22.96</time>
   <energy>
    <i name="e_fr_energy">   -300.34959870 </i>
    <i name="e_wo_entrp">   -300.31898014 </i>
    <i name="e_0_energy">   -300.33428942 </i>
   </energy>
  </scstep>
  <scstep>
   <time name="diag">    4.79    4.80</time>
   <time name="diis">   15.69   15.69</time>
   <time name="orth">    0.97    0.97</time>
   <time name="total">   22.67   22.69</time>
   <energy>
    <i name="e_fr_energy">   -307.48761076 </i>
    <i name="e_wo_entrp">   -307.45630833 </i>
    <i name="e_0_energy">   -307.47195954 </i>
   </energy>
  </scstep>
  <scstep>
   <time name="diag">    4.80    4.81</time>
   <time name="diis">   15.69   15.70</time>
   <time name="orth">    0.97    0.97</time>
   <time name="total">   22.68   22.71</time>
   <energy>
    <i name="e_fr_energy">   -317.41910433 </i>
    <i name="e_wo_entrp">   -317.38320810 </i>
    <i name="e_0_energy">   -317.40115621 </i>
   </energy>
  </scstep>
  <scstep>
   <time name="diag">    4.81    4.81</time>
   <time name="diis">   15.69   15.70</time>
   <time name="orth">    0.97    0.97</time>
   <time name="total">   22.70   22.71</time>
   <energy>
    <i name="e_fr_energy">   -324.38708413 </i>
    <i name="e_wo_entrp">   -324.35502865 </i>
    <i name="e_0_energy">   -324.37105639 </i>
   </energy>
  </scstep>
  <scstep>
   <time name="diag">    4.82    4.82</time>
   <time name="diis">   15.69   15.70</time>
   <time name="orth">    0.97    0.97</time>
   <time name="total">   22.71   22.72</time>
   <energy>
    <i name="e_fr_energy">   -326.43105167 </i>
    <i name="e_wo_entrp">   -326.39501730 </i>
    <i name="e_0_energy">   -326.41303448 </i>
   </energy>
  </scstep>
  <scstep>
   <time name="diag">    4.80    4.81</time>
   <time name="diis">   15.68   15.68</time>
   <time name="orth">    0.97    0.97</time>
   <time name="total">   22.68   22.70</time>
   <energy>
    <i name="e_fr_energy">   -327.72816517 </i>
    <i name="e_wo_entrp">   -327.69120297 </i>
    <i name="e_0_energy">   -327.70968407 </i>
   </energy>
  </scstep>
  <scstep>
   <time name="diag">    4.82    4.82</time>
   <time name="diis">   15.69   15.69</time>
   <time name="orth">    0.97    0.97</time>
   <time name="total">   22.70   23.54</time>
   <energy>
    <i name="e_fr_energy">   -328.70032978 </i>
    <i name="e_wo_entrp">   -328.66010441 </i>
    <i name="e_0_energy">   -328.68021709 </i>
   </energy>
  </scstep>
  <scstep>
   <time name="diag">    4.81    4.81</time>
   <time name="diis">   15.68   15.69</time>
   <time name="orth">    0.97    0.97</time>
   <time name="total">   22.69   23.48</time>
   <energy>
    <i name="e_fr_energy">   -329.37628683 </i>
    <i name="e_wo_entrp">   -329.33807215 </i>
    <i name="e_0_energy">   -329.35717949 </i>
   </energy>
  </scstep>
  <scstep>
   <time name="diag">    4.82    4.82</time>
   <time name="diis">   15.76   15.77</time>
   <time name="orth">    0.97    0.97</time>
   <time name="total">   22.78   22.80</time>
   <energy>
    <i name="e_fr_energy">   -329.60675813 </i>
    <i name="e_wo_entrp">   -329.56677068 </i>
    <i name="e_0_energy">   -329.58676440 </i>
   </energy>
  </scstep>
  <scstep>
   <time name="diag">    4.81    4.81</time>
   <time name="diis">   15.77   15.77</time>
   <time name="orth">    0.97    0.97</time>
   <time name="total">   22.78   22.79</time>
   <energy>
    <i name="e_fr_energy">   -329.71940709 </i>
    <i name="e_wo_entrp">   -329.68208166 </i>
    <i name="e_0_energy">   -329.70074438 </i>
   </energy>
  </scstep>
  <scstep>
   <time name="diag">    4.81    4.82</time>
   <time name="diis">   15.73   15.75</time>
   <time name="orth">    0.97    0.97</time>
   <time name="total">   22.75   23.19</time>
   <energy>
    <i name="e_fr_energy">   -329.80790052 </i>
    <i name="e_wo_entrp">   -329.77116295 </i>
    <i name="e_0_energy">   -329.78953174 </i>
   </energy>
  </scstep>
  <scstep>
   <time name="diag">    4.81    4.82</time>
   <time name="diis">   15.74   15.74</time>
   <time name="orth">    0.98    0.98</time>
   <time name="total">   22.76   22.81</time>
   <energy>
    <i name="e_fr_energy">   -329.84417627 </i>
    <i name="e_wo_entrp">   -329.80553331 </i>
    <i name="e_0_energy">   -329.82485479 </i>
   </energy>
  </scstep>
  <scstep>
   <time name="diag">    4.81    4.81</time>
   <time name="diis">   15.73   15.74</time>
   <time name="orth">    0.97    0.97</time>
   <time name="total">   22.75   22.97</time>
   <energy>
    <i name="e_fr_energy">   -329.86637687 </i>
    <i name="e_wo_entrp">   -329.82782770 </i>
    <i name="e_0_energy">   -329.84710229 </i>
   </energy>
  </scstep>
  <scstep>
   <time name="diag">    4.81    4.81</time>
   <time name="diis">   14.80   14.80</time>
   <time name="orth">    0.97    0.97</time>
   <time name="total">   21.82   21.83</time>
   <energy>
    <i name="e_fr_energy">   -329.86444394 </i>
    <i name="e_wo_entrp">   -329.82567415 </i>
    <i name="e_0_energy">   -329.84505905 </i>
   </energy>
  </scstep>
  <scstep>
   <time name="diag">    4.81    4.81</time>
   <time name="diis">   14.88   14.88</time>
   <time name="orth">    0.97    0.97</time>
   <time name="total">   21.90   21.91</time>
   <energy>
    <i name="e_fr_energy">   -329.85583573 </i>
    <i name="e_wo_entrp">   -329.81675376 </i>
    <i name="e_0_energy">   -329.83629475 </i>
   </energy>
  </scstep>
  <scstep>
   <time name="diag">    4.81    4.81</time>
   <time name="diis">   12.78   12.79</time>
   <time name="orth">    0.97    0.97</time>
   <time name="total">   19.80   19.82</time>
   <energy>
    <i name="e_fr_energy">   -329.84546899 </i>
    <i name="e_wo_entrp">   -329.80628058 </i>
    <i name="e_0_energy">   -329.82587478 </i>
   </energy>
  </scstep>
  <scstep>
   <time name="diag">    4.82    4.82</time>
   <time name="diis">   10.88   10.89</time>
   <time name="orth">    0.97    0.97</time>
   <time name="total">   17.91   17.92</time>
   <energy>
    <i name="e_fr_energy">   -329.84027843 </i>
    <i name="e_wo_entrp">   -329.80117071 </i>
    <i name="e_0_energy">   -329.82072457 </i>
   </energy>
  </scstep>
  <scstep>
   <time name="diag">    4.82    4.82</time>
   <time name="diis">   10.14   10.15</time>
   <time name="orth">    0.97    0.97</time>
   <time name="total">   17.17   17.18</time>
   <energy>
    <i name="e_fr_energy">   -329.83660259 </i>
    <i name="e_wo_entrp">   -329.79741829 </i>
    <i name="e_0_energy">   -329.81701044 </i>
   </energy>
  </scstep>
  <scstep>
   <time name="diag">    4.79    4.80</time>
   <time name="diis">   10.04   10.05</time>
   <time name="orth">    0.97    0.97</time>
   <time name="total">   17.04   17.05</time>
   <energy>
    <i name="e_fr_energy">   -329.83838896 </i>
    <i name="e_wo_entrp">   -329.79916919 </i>
    <i name="e_0_energy">   -329.81877908 </i>
   </energy>
  </scstep>
  <scstep>
   <time name="diag">    4.79    4.79</time>
   <time name="diis">   10.31   10.32</time>
   <time name="orth">    0.97    0.97</time>
   <time name="total">   17.31   17.32</time>
   <energy>
    <i name="e_fr_energy">   -329.84423377 </i>
    <i name="e_wo_entrp">   -329.80501774 </i>
    <i name="e_0_energy">   -329.82462575 </i>
   </energy>
  </scstep>
  <scstep>
   <time name="diag">    4.79    4.80</time>
   <time name="diis">   10.31   10.31</time>
   <time name="orth">    0.97    0.97</time>
   <time name="total">   17.30   17.32</time>
   <energy>
    <i name="e_fr_energy">   -329.85245756 </i>
    <i name="e_wo_entrp">   -329.81324212 </i>
    <i name="e_0_energy">   -329.83284984 </i>
   </energy>
  </scstep>
  <scstep>
   <time name="diag">    4.80    4.80</time>
   <time name="diis">    9.93    9.93</time>
   <time name="orth">    0.97    0.97</time>
   <time name="total">   16.93   17.14</time>
   <energy>
    <i name="e_fr_energy">   -329.85848010 </i>
    <i name="e_wo_entrp">   -329.81926544 </i>
    <i name="e_0_energy">   -329.83887277 </i>
   </energy>
  </scstep>
  <scstep>
   <time name="diag">    4.80    4.80</time>
   <time name="diis">   10.05   10.05</time>
   <time name="orth">    0.97    0.97</time>
   <time name="total">   17.05   17.10</time>
   <energy>
    <i name="e_fr_energy">   -329.86462080 </i>
    <i name="e_wo_entrp">   -329.82539265 </i>
    <i name="e_0_energy">   -329.84500672 </i>
   </energy>
  </scstep>
  <scstep>
   <time name="diag">    4.78    4.79</time>
   <time name="diis">   10.35   10.36</time>
   <time name="orth">    0.97    0.97</time>
   <time name="total">   17.33   17.34</time>
   <energy>
    <i name="e_fr_energy">   -329.87058738 </i>
    <i name="e_wo_entrp">   -329.83133980 </i>
    <i name="e_0_energy">   -329.85096359 </i>
   </energy>
  </scstep>
  <scstep>
   <time name="diag">    4.78    4.78</time>
   <time name="diis">   10.00   10.00</time>
   <time name="orth">    0.97    0.97</time>
   <time name="total">   16.97   16.98</time>
   <energy>
    <i name="e_fr_energy">   -329.87347280 </i>
    <i name="e_wo_entrp">   -329.83422685 </i>
    <i name="e_0_energy">   -329.85384982 </i>
   </energy>
  </scstep>
  <scstep>
   <time name="diag">    4.80    4.81</time>
   <time name="diis">    8.97    8.97</time>
   <time name="orth">    0.97    0.97</time>
   <time name="total">   15.96   15.99</time>
   <energy>
    <i name="e_fr_energy">   -329.87418764 </i>
    <i name="e_wo_entrp">   -329.83494286 </i>
    <i name="e_0_energy">   -329.85456525 </i>
   </energy>
  </scstep>
  <scstep>
   <time name="diag">    4.80    4.80</time>
   <time name="diis">    8.31    8.31</time>
   <time name="orth">    0.97    0.97</time>
   <time name="total">   15.30   15.70</time>
   <energy>
    <i name="e_fr_energy">   -329.87446005 </i>
    <i name="e_wo_entrp">   -329.83521381 </i>
    <i name="e_0_energy">   -329.85483693 </i>
   </energy>
  </scstep>
  <scstep>
   <time name="diag">    4.80    4.80</time>
   <time name="diis">    7.94    7.94</time>
   <time name="orth">    0.97    0.97</time>
   <time name="total">   14.93   15.24</time>
   <energy>
    <i name="e_fr_energy">   -329.87469677 </i>
    <i name="e_wo_entrp">   -329.83544815 </i>
    <i name="e_0_energy">   -329.85507246 </i>
   </energy>
  </scstep>
  <scstep>
   <time name="diag">    4.77    4.78</time>
   <time name="diis">    7.70    7.71</time>
   <time name="orth">    0.97    0.97</time>
   <time name="total">   14.67   14.68</time>
   <energy>
    <i name="e_fr_energy">   -329.87481505 </i>
    <i name="e_wo_entrp">   -329.83556827 </i>
    <i name="e_0_energy">   -329.85519166 </i>
   </energy>
  </scstep>
  <scstep>
   <time name="diag">    4.78    4.78</time>
   <time name="diis">    7.40    7.41</time>
   <time name="orth">    0.97    0.97</time>
   <time name="total">   13.45   13.46</time>
   <energy>
    <i name="alphaZ">   1039.80595180 </i>
    <i name="ewald">  64053.19466156 </i>
    <i name="hartreedc"> -87239.94030862 </i>
    <i name="XCdc">    637.36234604 </i>
    <i name="pawpsdc">  30842.77561867 </i>
    <i name="pawaedc"> -30315.02628664 </i>
    <i name="eentropy">     -0.03924581 </i>
    <i name="bandstr">  -2146.31771943 </i>
    <i name="atom">  22798.31011382 </i>
    <i name="e_fr_energy">   -329.87486861 </i>
    <i name="e_wo_entrp">   -329.83562280 </i>
    <i name="e_0_energy">   -329.85524571 </i>
   </energy>
  </scstep>
  <structure>
   <crystal>
    <varray name="basis" >
     <v>       0.00000000       0.00000000       6.36215693 </v>
     <v>       4.51451122      -4.51451122       0.00000000 </v>
     <v>      15.57162157      15.57162157       0.00000000 </v>
    </varray>
    <i name="volume">    894.49712776 </i>
    <varray name="rec_basis" >
     <v>       0.00000000       0.00000000       0.15717940 </v>
     <v>       0.11075396      -0.11075396       0.00000000 </v>
     <v>       0.03210969       0.03210969       0.00000000 </v>
    </varray>
   </crystal>
   <varray name="positions" >
    <v>       0.08911189       0.35545641       0.00000000 </v>
    <v>       0.58911189       0.35545641       0.00000000 </v>
    <v>       0.33911189       0.04692641       0.05551082 </v>
    <v>       0.83911189       0.04692641       0.05551082 </v>
    <v>       0.33911189       0.66398641       0.05551082 </v>
    <v>       0.83911189       0.66398641       0.05551082 </v>
    <v>       0.08911189       0.35545641       0.11102164 </v>
    <v>       0.58911189       0.35545641       0.11102164 </v>
    <v>       0.08911189       0.85545641       0.14495957 </v>
    <v>       0.58911189       0.85545641       0.14495957 </v>
    <v>       0.33911189       0.16398641       0.20047039 </v>
    <v>       0.83911189       0.16398641       0.20047039 </v>
    <v>       0.33911189       0.54692641       0.20047039 </v>
    <v>       0.83911189       0.54692641       0.20047039 </v>
    <v>       0.08911189       0.85545641       0.25598121 </v>
    <v>       0.58911189       0.85545641       0.25598121 </v>
    <v>       0.08911189       0.35545641       0.28991915 </v>
    <v>       0.58911189       0.35545641       0.28991915 </v>
    <v>       0.33911189       0.04692641       0.34542996 </v>
    <v>       0.83911189       0.04692641       0.34542996 </v>
    <v>       0.33911189       0.66398641       0.34542996 </v>
    <v>       0.83911189       0.66398641       0.34542996 </v>
    <v>       0.08911189       0.35545641       0.40094078 </v>
    <v>       0.58911189       0.35545641       0.40094078 </v>
    <v>       0.08911189       0.85545641       0.43487872 </v>
    <v>       0.58911189       0.85545641       0.43487872 </v>
    <v>       0.33911189       0.16398641       0.49038954 </v>
    <v>       0.83911189       0.16398641       0.49038954 </v>
    <v>       0.33911189       0.54692641       0.49038954 </v>
    <v>       0.83911189       0.54692641       0.49038954 </v>
    <v>       0.08911189       0.85545641       0.54590036 </v>
    <v>       0.58911189       0.85545641       0.54590036 </v>
    <v>       0.33911189       0.35545641       0.05551082 </v>
    <v>       0.83911189       0.35545641       0.05551082 </v>
    <v>       0.08911189       0.85545641       0.05551082 </v>
    <v>       0.58911189       0.85545641       0.05551082 </v>
    <v>       0.08911189       0.35545641       0.20047039 </v>
    <v>       0.58911189       0.35545641       0.20047039 </v>
    <v>       0.33911189       0.85545641       0.20047039 </v>
    <v>       0.83911189       0.85545641       0.20047039 </v>
    <v>       0.33911189       0.35545641       0.34542996 </v>
    <v>       0.83911189       0.35545641       0.34542996 </v>
    <v>       0.08911189       0.85545641       0.34542996 </v>
    <v>       0.58911189       0.85545641       0.34542996 </v>
    <v>       0.08911189       0.35545641       0.49038954 </v>
    <v>       0.58911189       0.35545641       0.49038954 </v>
    <v>       0.33911189       0.85545641       0.49038954 </v>
    <v>       0.83911189       0.85545641       0.49038954 </v>
   </varray>
  </structure>
  <varray name="forces" >
   <v>       0.43623309       0.43779807      -0.00065732 </v>
   <v>       0.43625065       0.43779273      -0.00063301 </v>
   <v>      -0.42527166      -0.47301959       0.00366374 </v>
   <v>      -0.42525456      -0.47303504       0.00373885 </v>
   <v>      -0.47216981      -0.42686534      -0.00109809 </v>
   <v>      -0.47218489      -0.42684175      -0.00102318 </v>
   <v>       0.17875815       0.17930952      -0.00073062 </v>
   <v>       0.17885704       0.17941118      -0.00070929 </v>
   <v>      -0.09296432      -0.09447409      -0.00151073 </v>
   <v>      -0.09291524      -0.09442688      -0.00147809 </v>
   <v>      -0.00002959      -0.05427735       0.00052932 </v>
   <v>      -0.00004825      -0.05425236       0.00047330 </v>
   <v>      -0.05496597      -0.00088833       0.00278433 </v>
   <v>      -0.05493984      -0.00091160       0.00272836 </v>
   <v>       0.14512984       0.14330868      -0.00088457 </v>
   <v>       0.14508162       0.14326012      -0.00083840 </v>
   <v>      -0.14131823      -0.14084825       0.00055235 </v>
   <v>      -0.14133369      -0.14085840       0.00064609 </v>
   <v>       0.00196924       0.05047934       0.00240564 </v>
   <v>       0.00202267       0.05043057       0.00251440 </v>
   <v>       0.05212008       0.00152912       0.00061072 </v>
   <v>       0.05207086       0.00158206       0.00072361 </v>
   <v>       0.09300020       0.09243676       0.00045338 </v>
   <v>       0.09298473       0.09242286       0.00052498 </v>
   <v>      -0.17908353      -0.18131593       0.00019967 </v>
   <v>      -0.17904264      -0.18127527       0.00026182 </v>
   <v>       0.42761042       0.47100022      -0.00040289 </v>
   <v>       0.42757796       0.47103496      -0.00039528 </v>
   <v>       0.47023845       0.42694366       0.00138397 </v>
   <v>       0.47026835       0.42689839       0.00139019 </v>
   <v>      -0.43697839      -0.43853550       0.00233956 </v>
   <v>      -0.43696844      -0.43853186       0.00239569 </v>
   <v>      -0.60408728      -0.60252589      -0.00187197 </v>
   <v>      -0.60409641      -0.60252545      -0.00166257 </v>
   <v>       1.04341238       1.04385017      -0.00258413 </v>
   <v>       1.04334968       1.04379260      -0.00256263 </v>
   <v>      -0.13964165      -0.13824431      -0.00030473 </v>
   <v>      -0.13963565      -0.13823730      -0.00025515 </v>
   <v>      -0.17843714      -0.17650143      -0.00070513 </v>
   <v>      -0.17843766      -0.17649874      -0.00063360 </v>
   <v>       0.17729155       0.17882998      -0.00138688 </v>
   <v>       0.17729087       0.17882873      -0.00143580 </v>
   <v>       0.13965369       0.14012636      -0.00228613 </v>
   <v>       0.13964724       0.14012119      -0.00218802 </v>
   <v>      -1.04269868      -1.04181479      -0.00032681 </v>
   <v>      -1.04272622      -1.04183992      -0.00030173 </v>
   <v>       0.60219587       0.60367068      -0.00077933 </v>
   <v>       0.60221510       0.60368741      -0.00067389 </v>
  </varray>
  <varray name="stress" >
   <v>      -8.05715595       2.80431906       0.02947706 </v>
   <v>       2.80431886      -8.07309684      -0.02084548 </v>
   <v>       0.02947722      -0.02084557     -15.14727052 </v>
  </varray>
  <energy>
   <i name="e_fr_energy">   -339.70681992 </i>
   <i name="e_wo_entrp">   -339.68719702 </i>
   <i name="e_0_energy">     -0.03924581 </i>
  </energy>
  <time name="totalsc">  939.89  948.09</time>
 </calculation>
 <calculation>
  <scstep>
   <time name="dav">   29.47   29.49</time>
   <time name="total">   30.69   30.71</time>
   <energy>
    <i name="alphaZ">   1039.80595180 </i>
    <i name="ewald">  64064.59560806 </i>
    <i name="hartreedc"> -87250.54827000 </i>
    <i name="XCdc">    637.43891060 </i>
    <i name="pawpsdc">  30842.79128260 </i>
    <i name="pawaedc"> -30315.04203910 </i>
    <i name="eentropy">     -0.03903586 </i>
    <i name="bandstr">  -2147.25186116 </i>
    <i name="atom">  22798.31011382 </i>
    <i name="e_fr_energy">   -329.93933923 </i>
    <i name="e_wo_entrp">   -329.90030337 </i>
    <i name="e_0_energy">   -329.91982130 </i>
   </energy>
  </scstep>
  <scstep>
   <time name="diag">    4.83    4.84</time>
   <time name="diis">   15.57   15.58</time>
   <time name="orth">    0.97    0.97</time>
   <time name="total">   22.60   22.63</time>
   <energy>
    <i name="e_fr_energy">   -329.96763043 </i>
    <i name="e_wo_entrp">   -329.93165402 </i>
    <i name="e_0_energy">   -329.94964223 </i>
   </energy>
  </scstep>
  <scstep>
   <time name="diag">    4.83    4.83</time>
   <time name="diis">   16.98   16.99</time>
   <time name="orth">    0.97    0.98</time>
   <time name="total">   24.01   24.46</time>
   <energy>
    <i name="e_fr_energy">   -329.94972121 </i>
    <i name="e_wo_entrp">   -329.91193850 </i>
    <i name="e_0_energy">   -329.93082986 </i>
   </energy>
  </scstep>
  <scstep>
   <time name="diag">    4.83    4.83</time>
   <time name="diis">   14.01   14.02</time>
   <time name="orth">    0.97    0.97</time>
   <time name="total">   21.04   21.05</time>
   <energy>
    <i name="e_fr_energy">   -329.95122205 </i>
    <i name="e_wo_entrp">   -329.91349901 </i>
    <i name="e_0_energy">   -329.93236053 </i>
   </energy>
  </scstep>
  <scstep>
   <time name="diag">    4.83    4.83</time>
   <time name="diis">   15.00   15.01</time>
   <time name="orth">    0.98    0.98</time>
   <time name="total">   22.05   22.06</time>
   <energy>
    <i name="e_fr_energy">   -329.95039164 </i>
    <i name="e_wo_entrp">   -329.91337693 </i>
    <i name="e_0_energy">   -329.93188428 </i>
   </energy>
  </scstep>
  <scstep>
   <time name="diag">    4.83    4.83</time>
   <time name="diis">   15.00   15.00</time>
   <time name="orth">    0.97    0.97</time>
   <time name="total">   22.02   22.07</time>
   <energy>
    <i name="e_fr_energy">   -329.94714595 </i>
    <i name="e_wo_entrp">   -329.90850804 </i>
    <i name="e_0_energy">   -329.92782699 </i>
   </energy>
  </scstep>
  <scstep>
   <time name="diag">    4.83    4.83</time>
   <time name="diis">   14.59   14.60</time>
   <time name="orth">    0.97    0.97</time>
   <time name="total">   21.62   21.94</time>
   <energy>
    <i name="e_fr_energy">   -329.94533028 </i>
    <i name="e_wo_entrp">   -329.90646112 </i>
    <i name="e_0_energy">   -329.92589570 </i>
   </energy>
  </scstep>
  <scstep>
   <time name="diag">    4.82    4.83</time>
   <time name="diis">   10.71   10.72</time>
   <time name="orth">    0.97    0.97</time>
   <time name="total">   17.74   17.77</time>
   <energy>
    <i name="e_fr_energy">   -329.94520721 </i>
    <i name="e_wo_entrp">   -329.90630031 </i>
    <i name="e_0_energy">   -329.92575376 </i>
   </energy>
  </scstep>
  <scstep>
   <time name="diag">    4.82    4.82</time>
   <time name="diis">    9.26    9.26</time>
   <time name="orth">    0.97    0.97</time>
   <time name="total">   15.34   15.35</time>
   <energy>
    <i name="alphaZ">   1039.80595180 </i>
    <i name="ewald">  64064.59560806 </i>
    <i name="hartreedc"> -87251.92147743 </i>
    <i name="XCdc">    637.47154638 </i>
    <i name="pawpsdc">  30870.43975993 </i>
    <i name="pawaedc"> -30342.77603013 </i>
    <i name="eentropy">     -0.03889604 </i>
    <i name="bandstr">  -2145.83175287 </i>
    <i name="atom">  22798.31011382 </i>
    <i name="e_fr_energy">   -329.94517648 </i>
    <i name="e_wo_entrp">   -329.90628044 </i>
    <i name="e_0_energy">   -329.92572846 </i>
   </energy>
  </scstep>
  <structure>
   <crystal>
    <varray name="basis" >
     <v>       0.00000000       0.00000000       6.36215693 </v>
     <v>       4.51451122      -4.51451122       0.00000000 </v>
     <v>      15.57162157      15.57162157       0.00000000 </v>
    </varray>
    <i name="volume">    894.49712776 </i>
    <varray name="rec_basis" >
     <v>       0.00000000       0.00000000       0.15717940 </v>
     <v>       0.11075396      -0.11075396       0.00000000 </v>
     <v>       0.03210969       0.03210969       0.00000000 </v>
    </varray>
   </crystal>
   <varray name="positions" >
    <v>       0.08911189       0.35545641       0.00000000 </v>
    <v>       0.58911189       0.35545641       0.00000000 </v>
    <v>       0.33911189       0.04692641       0.05551082 </v>
    <v>       0.83911189       0.04692641       0.05551082 </v>
    <v>       0.33911189       0.66398641       0.05551082 </v>
    <v>       0.83911189       0.66398641       0.05551082 </v>
    <v>       0.08911189       0.35545641       0.11102164 </v>
    <v>       0.58911189       0.35545641       0.11102164 </v>
    <v>       0.08911189       0.85545641       0.14495957 </v>
    <v>       0.58911189       0.85545641       0.14495957 </v>
    <v>       0.33911189       0.16398641       0.20047039 </v>
    <v>       0.83911189       0.16398641       0.20047039 </v>
    <v>       0.33911189       0.54692641       0.20047039 </v>
    <v>       0.83911189       0.54692641       0.20047039 </v>
    <v>       0.08911189       0.85545641       0.25598121 </v>
    <v>       0.58911189       0.85545641       0.25598121 </v>
    <v>       0.08911273       0.35545591       0.28983173 </v>
    <v>       0.58911287       0.35545590       0.28983172 </v>
    <v>       0.33911554       0.04687457       0.34544621 </v>
    <v>       0.83911571       0.04687468       0.34544621 </v>
    <v>       0.33911282       0.66404047       0.34544659 </v>
    <v>       0.83911299       0.66404036       0.34544659 </v>
    <v>       0.08911258       0.35545701       0.40099823 </v>
    <v>       0.58911269       0.35545701       0.40099822 </v>
    <v>       0.08911220       0.85545880       0.43476706 </v>
    <v>       0.58911229       0.85545880       0.43476709 </v>
    <v>       0.33911128       0.16394004       0.49066794 </v>
    <v>       0.83911129       0.16393997       0.49066794 </v>
    <v>       0.33911399       0.54697268       0.49066749 </v>
    <v>       0.83911400       0.54697276       0.49066749 </v>
    <v>       0.08911544       0.85545808       0.54562911 </v>
    <v>       0.58911553       0.85545808       0.54562912 </v>
    <v>       0.33911189       0.35545641       0.05551082 </v>
    <v>       0.83911189       0.35545641       0.05551082 </v>
    <v>       0.08911189       0.85545641       0.05551082 </v>
    <v>       0.58911189       0.85545641       0.05551082 </v>
    <v>       0.08911189       0.35545641       0.20047039 </v>
    <v>       0.58911189       0.35545641       0.20047039 </v>
    <v>       0.33911189       0.85545641       0.20047039 </v>
    <v>       0.83911189       0.85545641       0.20047039 </v>
    <v>       0.33910979       0.35545477       0.34554029 </v>
    <v>       0.83910972       0.35545477       0.34554029 </v>
    <v>       0.08910843       0.85545591       0.34551664 </v>
    <v>       0.58910858       0.85545591       0.34551664 </v>
    <v>       0.08911140       0.35545547       0.48974373 </v>
    <v>       0.58911144       0.35545546       0.48974371 </v>
    <v>       0.33911071       0.85545484       0.49076313 </v>
    <v>       0.83911087       0.85545484       0.49076314 </v>
   </varray>
  </structure>
  <varray name="forces" >
   <v>       0.43533249       0.43692812      -0.00085221 </v>
   <v>       0.43532895       0.43692647      -0.00084866 </v>
   <v>      -0.42555601      -0.47386240       0.00349887 </v>
   <v>      -0.42555334      -0.47386199       0.00350287 </v>
   <v>      -0.47305435      -0.42710803      -0.00127039 </v>
   <v>      -0.47305589      -0.42710533      -0.00126433 </v>
   <v>       0.17669428       0.17728740      -0.00094776 </v>
   <v>       0.17669042       0.17728515      -0.00094333 </v>
   <v>      -0.09021010      -0.09167904      -0.00173632 </v>
   <v>      -0.09020288      -0.09167234      -0.00173653 </v>
   <v>      -0.00359384      -0.05549240       0.00030261 </v>
   <v>      -0.00359693      -0.05548968       0.00030806 </v>
   <v>      -0.05622146      -0.00440808       0.00255752 </v>
   <v>      -0.05621775      -0.00440978       0.00255793 </v>
   <v>       0.16359836       0.16183571      -0.00116689 </v>
   <v>       0.16359807       0.16183804      -0.00115502 </v>
   <v>      -0.05530681      -0.05601910       0.00046089 </v>
   <v>      -0.05530947      -0.05601916       0.00045009 </v>
   <v>       0.01616209       0.04907897       0.00137742 </v>
   <v>       0.01614723       0.04909679       0.00134247 </v>
   <v>       0.05039720       0.01601254      -0.00032996 </v>
   <v>       0.05040841       0.01599914      -0.00036385 </v>
   <v>      -0.02093963      -0.02107040      -0.00014029 </v>
   <v>      -0.02093424      -0.02106739      -0.00017245 </v>
   <v>      -0.04267439      -0.04432302       0.00077427 </v>
   <v>      -0.04268622      -0.04434634       0.00077372 </v>
   <v>       0.40071473       0.37974147       0.00096969 </v>
   <v>       0.40071027       0.37972968       0.00096970 </v>
   <v>       0.37893793       0.39957751       0.00255235 </v>
   <v>       0.37892495       0.39957946       0.00256703 </v>
   <v>      -0.26620221      -0.26750925       0.00188658 </v>
   <v>      -0.26621121      -0.26751934       0.00186524 </v>
   <v>      -0.60206636      -0.60044414      -0.00196049 </v>
   <v>      -0.60206950      -0.60044625      -0.00196749 </v>
   <v>       1.04337184       1.04386078      -0.00277829 </v>
   <v>       1.04336120       1.04385034      -0.00277416 </v>
   <v>      -0.15740359      -0.15595501      -0.00043183 </v>
   <v>      -0.15740670      -0.15595428      -0.00042302 </v>
   <v>      -0.17456829      -0.17256009      -0.00082458 </v>
   <v>      -0.17457125      -0.17256234      -0.00082724 </v>
   <v>       0.05916683       0.05996733      -0.00073996 </v>
   <v>       0.05916387       0.05997344      -0.00070223 </v>
   <v>       0.07982387       0.07989693      -0.00064568 </v>
   <v>       0.07982892       0.07990521      -0.00069922 </v>
   <v>      -0.76688242      -0.76588857      -0.00021059 </v>
   <v>      -0.76686392      -0.76587722      -0.00020657 </v>
   <v>       0.33049885       0.33213637      -0.00026602 </v>
   <v>       0.33049797       0.33214413      -0.00033195 </v>
  </varray>
  <varray name="stress" >
   <v>      -6.87114979       3.68335636       0.02778951 </v>
   <v>       3.68335623      -6.89031106      -0.02165117 </v>
   <v>       0.02778959      -0.02165108     -15.18410504 </v>
  </varray>
  <energy>
   <i name="e_fr_energy">   -339.77791799 </i>
   <i name="e_wo_entrp">   -339.75846997 </i>
   <i name="e_0_energy">     -0.03889604 </i>
  </energy>
  <time name="totalsc">  228.25  229.35</time>
 </calculation>
 <calculation>
  <scstep>
   <time name="dav">   29.03   29.04</time>
   <time name="total">   30.27   30.28</time>
   <energy>
    <i name="alphaZ">   1039.80595180 </i>
    <i name="ewald">  64084.62690745 </i>
    <i name="hartreedc"> -87270.36222938 </i>
    <i name="XCdc">    637.60693122 </i>
    <i name="pawpsdc">  30870.25996408 </i>
    <i name="pawaedc"> -30342.59498669 </i>
    <i name="eentropy">     -0.03848219 </i>
    <i name="bandstr">  -2147.60090397 </i>
    <i name="atom">  22798.31011382 </i>
    <i name="e_fr_energy">   -329.98673387 </i>
    <i name="e_wo_entrp">   -329.94825168 </i>
    <i name="e_0_energy">   -329.96749277 </i>
   </energy>
  </scstep>
  <scstep>
   <time name="diag">    4.84    4.84</time>
   <time name="diis">   15.76   15.77</time>
   <time name="orth">    0.98    0.98</time>
   <time name="total">   22.80   22.82</time>
   <energy>
    <i name="e_fr_energy">   -330.06234464 </i>
    <i name="e_wo_entrp">   -330.02690972 </i>
    <i name="e_0_energy">   -330.04462718 </i>
   </energy>
  </scstep>
  <scstep>
   <time name="diag">    4.83    4.84</time>
   <time name="diis">   17.31   17.32</time>
   <time name="orth">    0.97    0.97</time>
   <time name="total">   24.35   24.50</time>
   <energy>
    <i name="e_fr_energy">   -330.01868389 </i>
    <i name="e_wo_entrp">   -329.98239035 </i>
    <i name="e_0_energy">   -330.00053712 </i>
   </energy>
  </scstep>
  <scstep>
   <time name="diag">    4.82    4.82</time>
   <time name="diis">   15.51   15.52</time>
   <time name="orth">    0.97    0.97</time>
   <time name="total">   22.52   22.80</time>
   <energy>
    <i name="e_fr_energy">   -330.02722012 </i>
    <i name="e_wo_entrp">   -329.99123562 </i>
    <i name="e_0_energy">   -330.00922787 </i>
   </energy>
  </scstep>
  <scstep>
   <time name="diag">    4.82    4.82</time>
   <time name="diis">   15.68   15.68</time>
   <time name="orth">    0.97    0.97</time>
   <time name="total">   22.69   23.10</time>
   <energy>
    <i name="e_fr_energy">   -330.02546131 </i>
    <i name="e_wo_entrp">   -329.99050779 </i>
    <i name="e_0_energy">   -330.00798455 </i>
   </energy>
  </scstep>
  <scstep>
   <time name="diag">    4.82    4.82</time>
   <time name="diis">   15.70   15.71</time>
   <time name="orth">    0.97    0.97</time>
   <time name="total">   22.72   23.53</time>
   <energy>
    <i name="e_fr_energy">   -330.01532234 </i>
    <i name="e_wo_entrp">   -329.97828779 </i>
    <i name="e_0_energy">   -329.99680507 </i>
   </energy>
  </scstep>
  <scstep>
   <time name="diag">    4.82    4.82</time>
   <time name="diis">   15.69   15.69</time>
   <time name="orth">    0.97    0.97</time>
   <time name="total">   22.70   22.72</time>
   <energy>
    <i name="e_fr_energy">   -330.00774808 </i>
    <i name="e_wo_entrp">   -329.96972206 </i>
    <i name="e_0_energy">   -329.98873507 </i>
   </energy>
  </scstep>
  <scstep>
   <time name="diag">    4.82    4.82</time>
   <time name="diis">   14.39   14.40</time>
   <time name="orth">    0.97    0.97</time>
   <time name="total">   21.41   21.94</time>
   <energy>
    <i name="e_fr_energy">   -330.00729662 </i>
    <i name="e_wo_entrp">   -329.96930614 </i>
    <i name="e_0_energy">   -329.98830138 </i>
   </energy>
  </scstep>
  <scstep>
   <time name="diag">    4.82    4.82</time>
   <time name="diis">    9.85    9.85</time>
   <time name="orth">    0.97    0.97</time>
   <time name="total">   15.93   16.55</time>
   <energy>
    <i name="alphaZ">   1039.80595180 </i>
    <i name="ewald">  64084.62690745 </i>
    <i name="hartreedc"> -87272.70267508 </i>
    <i name="XCdc">    637.66565496 </i>
    <i name="pawpsdc">  30924.54019241 </i>
    <i name="pawaedc"> -30397.03179024 </i>
    <i name="eentropy">     -0.03787871 </i>
    <i name="bandstr">  -2145.18367561 </i>
    <i name="atom">  22798.31011382 </i>
    <i name="e_fr_energy">   -330.00719920 </i>
    <i name="e_wo_entrp">   -329.96932049 </i>
    <i name="e_0_energy">   -329.98825984 </i>
   </energy>
  </scstep>
  <structure>
   <crystal>
    <varray name="basis" >
     <v>       0.00000000       0.00000000       6.36215693 </v>
     <v>       4.51451122      -4.51451122       0.00000000 </v>
     <v>      15.57162157      15.57162157       0.00000000 </v>
    </varray>
    <i name="volume">    894.49712776 </i>
    <varray name="rec_basis" >
     <v>       0.00000000       0.00000000       0.15717940 </v>
     <v>       0.11075396      -0.11075396       0.00000000 </v>
     <v>       0.03210969       0.03210969       0.00000000 </v>
    </varray>
   </crystal>
   <varray name="positions" >
    <v>       0.08911189       0.35545641       0.00000000 </v>
    <v>       0.58911189       0.35545641       0.00000000 </v>
    <v>       0.33911189       0.04692641       0.05551082 </v>
    <v>       0.83911189       0.04692641       0.05551082 </v>
    <v>       0.33911189       0.66398641       0.05551082 </v>
    <v>       0.83911189       0.66398641       0.05551082 </v>
    <v>       0.08911189       0.35545641       0.11102164 </v>
    <v>       0.58911189       0.35545641       0.11102164 </v>
    <v>       0.08911189       0.85545641       0.14495957 </v>
    <v>       0.58911189       0.85545641       0.14495957 </v>
    <v>       0.33911189       0.16398641       0.20047039 </v>
    <v>       0.83911189       0.16398641       0.20047039 </v>
    <v>       0.33911189       0.54692641       0.20047039 </v>
    <v>       0.83911189       0.54692641       0.20047039 </v>
    <v>       0.08911189       0.85545641       0.25598121 </v>
    <v>       0.58911189       0.85545641       0.25598121 </v>
    <v>       0.08911424       0.35545500       0.28967420 </v>
    <v>       0.58911464       0.35545499       0.28967417 </v>
    <v>       0.33912212       0.04678116       0.34547550 </v>
    <v>       0.83912258       0.04678146       0.34547550 </v>
    <v>       0.33911449       0.66413790       0.34547654 </v>
    <v>       0.83911497       0.66413759       0.34547654 </v>
    <v>       0.08911382       0.35545810       0.40110176 </v>
    <v>       0.58911413       0.35545809       0.40110174 </v>
    <v>       0.08911274       0.85546310       0.43456585 </v>
    <v>       0.58911301       0.85546310       0.43456592 </v>
    <v>       0.33911018       0.16385649       0.49116963 </v>
    <v>       0.83911021       0.16385629       0.49116963 </v>
    <v>       0.33911778       0.54705605       0.49116839 </v>
    <v>       0.83911780       0.54705627       0.49116837 </v>
    <v>       0.08912184       0.85546107       0.54514032 </v>
    <v>       0.58912207       0.85546109       0.54514033 </v>
    <v>       0.33911189       0.35545641       0.05551082 </v>
    <v>       0.83911189       0.35545641       0.05551082 </v>
    <v>       0.08911189       0.85545641       0.05551082 </v>
    <v>       0.58911189       0.85545641       0.05551082 </v>
    <v>       0.08911189       0.35545641       0.20047039 </v>
    <v>       0.58911189       0.35545641       0.20047039 </v>
    <v>       0.33911189       0.85545641       0.20047039 </v>
    <v>       0.83911189       0.85545641       0.20047039 </v>
    <v>       0.33910600       0.35545181       0.34573912 </v>
    <v>       0.83910579       0.35545181       0.34573911 </v>
    <v>       0.08910218       0.85545500       0.34567284 </v>
    <v>       0.58910260       0.85545499       0.34567283 </v>
    <v>       0.08911051       0.35545377       0.48857996 </v>
    <v>       0.58911061       0.35545376       0.48857991 </v>
    <v>       0.33910858       0.85545200       0.49143636 </v>
    <v>       0.83910903       0.85545200       0.49143639 </v>
   </varray>
  </structure>
  <varray name="forces" >
   <v>       0.43589442       0.43727902      -0.00056754 </v>
   <v>       0.43589428       0.43728120      -0.00056678 </v>
   <v>      -0.42308532      -0.47450840       0.00378862 </v>
   <v>      -0.42308623      -0.47450687       0.00378764 </v>
   <v>      -0.47349855      -0.42485226      -0.00098252 </v>
   <v>      -0.47349782      -0.42485219      -0.00098127 </v>
   <v>       0.17271112       0.17309198      -0.00069769 </v>
   <v>       0.17270785       0.17309337      -0.00069670 </v>
   <v>      -0.09275210      -0.09443805      -0.00151245 </v>
   <v>      -0.09275394      -0.09443786      -0.00151440 </v>
   <v>      -0.00540345      -0.06137499       0.00060942 </v>
   <v>      -0.00541089      -0.06137408       0.00061100 </v>
   <v>      -0.06189611      -0.00642592       0.00284547 </v>
   <v>      -0.06189151      -0.00642093       0.00284395 </v>
   <v>       0.20020959       0.19827554      -0.00105478 </v>
   <v>       0.20021053       0.19827231      -0.00104550 </v>
   <v>       0.09926404       0.09875614       0.00106719 </v>
   <v>       0.09926006       0.09875756       0.00101190 </v>
   <v>       0.04043931       0.04486717      -0.00051827 </v>
   <v>       0.04039848       0.04490640      -0.00059935 </v>
   <v>       0.04419751       0.04163238      -0.00165976 </v>
   <v>       0.04423111       0.04159618      -0.00174088 </v>
   <v>      -0.28297354      -0.28313246      -0.00094806 </v>
   <v>      -0.28296852      -0.28312493      -0.00100321 </v>
   <v>       0.19723741       0.19636063       0.00031901 </v>
   <v>       0.19721198       0.19632802       0.00029524 </v>
   <v>       0.36097144       0.21317721      -0.00046907 </v>
   <v>       0.36098606       0.21314148      -0.00046919 </v>
   <v>       0.21269809       0.36160378       0.00028126 </v>
   <v>       0.21266547       0.36163123       0.00029708 </v>
   <v>       0.05429669       0.05260661       0.00107495 </v>
   <v>       0.05427789       0.05258486       0.00103503 </v>
   <v>      -0.60330549      -0.60186384      -0.00166431 </v>
   <v>      -0.60330319      -0.60186750      -0.00166448 </v>
   <v>       1.04379715       1.04408975      -0.00248949 </v>
   <v>       1.04379840       1.04409417      -0.00248848 </v>
   <v>      -0.18739649      -0.18613880      -0.00004494 </v>
   <v>      -0.18740286      -0.18614547      -0.00003129 </v>
   <v>      -0.16855601      -0.16670264      -0.00045793 </v>
   <v>      -0.16856236      -0.16670738      -0.00046006 </v>
   <v>      -0.15183018      -0.15208905       0.00114136 </v>
   <v>      -0.15184124      -0.15208273       0.00124126 </v>
   <v>      -0.02557776      -0.02660247       0.00163960 </v>
   <v>      -0.02556200      -0.02657961       0.00149606 </v>
   <v>      -0.21229127      -0.21059164      -0.00073167 </v>
   <v>      -0.21226372      -0.21058614      -0.00075563 </v>
   <v>      -0.17310978      -0.17301108       0.00129936 </v>
   <v>      -0.17313855      -0.17300972       0.00113027 </v>
  </varray>
  <varray name="stress" >
   <v>      -4.40999019       5.36459266       0.01228754 </v>
   <v>       5.36459265      -4.41612649      -0.02634063 </v>
   <v>       0.01228741      -0.02634062     -15.11967420 </v>
  </varray>
  <energy>
   <i name="e_fr_energy">   -339.84136366 </i>
   <i name="e_wo_entrp">   -339.82242431 </i>
   <i name="e_0_energy">     -0.03787871 </i>
  </energy>
  <time name="totalsc">  236.85  240.17</time>
 </calculation>
 <calculation>
  <scstep>
   <time name="dav">   29.72   29.73</time>
   <time name="total">   30.94   30.95</time>
   <energy>
    <i name="alphaZ">   1039.80595180 </i>
    <i name="ewald">  64088.41833345 </i>
    <i name="hartreedc"> -87276.07209576 </i>
    <i name="XCdc">    637.68794744 </i>
    <i name="pawpsdc">  30924.48770612 </i>
    <i name="pawaedc"> -30396.97850588 </i>
    <i name="eentropy">     -0.03771281 </i>
    <i name="bandstr">  -2145.62943585 </i>
    <i name="atom">  22798.31011382 </i>
    <i name="e_fr_energy">   -330.00769766 </i>
    <i name="e_wo_entrp">   -329.96998486 </i>
    <i name="e_0_energy">   -329.98884126 </i>
   </energy>
  </scstep>
  <scstep>
   <time name="diag">    4.84    4.84</time>
   <time name="diis">   15.44   15.44</time>
   <time name="orth">    0.97    0.97</time>
   <time name="total">   22.47   22.74</time>
   <energy>
    <i name="e_fr_energy">   -330.00900528 </i>
    <i name="e_wo_entrp">   -329.97065863 </i>
    <i name="e_0_energy">   -329.98983195 </i>
   </energy>
  </scstep>
  <scstep>
   <time name="diag">    4.84    4.84</time>
   <time name="diis">   14.87   14.88</time>
   <time name="orth">    0.98    0.98</time>
   <time name="total">   21.91   21.92</time>
   <energy>
    <i name="e_fr_energy">   -330.01340656 </i>
    <i name="e_wo_entrp">   -329.97667401 </i>
    <i name="e_0_energy">   -329.99504029 </i>
   </energy>
  </scstep>
  <scstep>
   <time name="diag">    4.83    4.83</time>
   <time name="diis">   13.19   13.19</time>
   <time name="orth">    0.97    0.97</time>
   <time name="total">   20.21   20.22</time>
   <energy>
    <i name="e_fr_energy">   -330.00930146 </i>
    <i name="e_wo_entrp">   -329.97211968 </i>
    <i name="e_0_energy">   -329.99071057 </i>
   </energy>
  </scstep>
  <scstep>
   <time name="diag">    4.84    4.84</time>
   <time name="diis">   10.74   10.75</time>
   <time name="orth">    0.97    0.97</time>
   <time name="total">   17.78   18.30</time>
   <energy>
    <i name="e_fr_energy">   -330.00896391 </i>
    <i name="e_wo_entrp">   -329.97114919 </i>
    <i name="e_0_energy">   -329.99005655 </i>
   </energy>
  </scstep>
  <scstep>
   <time name="diag">    4.83    4.83</time>
   <time name="diis">   10.17   10.17</time>
   <time name="orth">    0.98    0.98</time>
   <time name="total">   16.27   16.29</time>
   <energy>
    <i name="alphaZ">   1039.80595180 </i>
    <i name="ewald">  64088.41833345 </i>
    <i name="hartreedc"> -87276.26416187 </i>
    <i name="XCdc">    637.68819903 </i>
    <i name="pawpsdc">  30932.16020390 </i>
    <i name="pawaedc"> -30404.67225228 </i>
    <i name="eentropy">     -0.03751611 </i>
    <i name="bandstr">  -2145.41775624 </i>
    <i name="atom">  22798.31011382 </i>
    <i name="e_fr_energy">   -330.00888450 </i>
    <i name="e_wo_entrp">   -329.97136839 </i>
    <i name="e_0_energy">   -329.99012644 </i>
   </energy>
  </scstep>
  <structure>
   <crystal>
    <varray name="basis" >
     <v>       0.00000000       0.00000000       6.36215693 </v>
     <v>       4.51451122      -4.51451122       0.00000000 </v>
     <v>      15.57162157      15.57162157       0.00000000 </v>
    </varray>
    <i name="volume">    894.49712776 </i>
    <varray name="rec_basis" >
     <v>       0.00000000       0.00000000       0.15717940 </v>
     <v>       0.11075396      -0.11075396       0.00000000 </v>
     <v>       0.03210969       0.03210969       0.00000000 </v>
    </varray>
   </crystal>
   <varray name="positions" >
    <v>       0.08911189       0.35545641       0.00000000 </v>
    <v>       0.58911189       0.35545641       0.00000000 </v>
    <v>       0.33911189       0.04692641       0.05551082 </v>
    <v>       0.83911189       0.04692641       0.05551082 </v>
    <v>       0.33911189       0.66398641       0.05551082 </v>
    <v>       0.83911189       0.66398641       0.05551082 </v>
    <v>       0.08911189       0.35545641       0.11102164 </v>
    <v>       0.58911189       0.35545641       0.11102164 </v>
    <v>       0.08911189       0.85545641       0.14495957 </v>
    <v>       0.58911189       0.85545641       0.14495957 </v>
    <v>       0.33911189       0.16398641       0.20047039 </v>
    <v>       0.83911189       0.16398641       0.20047039 </v>
    <v>       0.33911189       0.54692641       0.20047039 </v>
    <v>       0.83911189       0.54692641       0.20047039 </v>
    <v>       0.08911189       0.85545641       0.25598121 </v>
    <v>       0.58911189       0.85545641       0.25598121 </v>
    <v>       0.08911453       0.35545483       0.28964379 </v>
    <v>       0.58911498       0.35545481       0.28964376 </v>
    <v>       0.33912339       0.04676313       0.34548115 </v>
    <v>       0.83912391       0.04676347       0.34548115 </v>
    <v>       0.33911481       0.66415670       0.34548232 </v>
    <v>       0.83911535       0.66415636       0.34548232 </v>
    <v>       0.08911406       0.35545831       0.40112175 </v>
    <v>       0.58911440       0.35545830       0.40112172 </v>
    <v>       0.08911285       0.85546393       0.43452701 </v>
    <v>       0.58911315       0.85546393       0.43452709 </v>
    <v>       0.33910997       0.16384036       0.49126647 </v>
    <v>       0.83911001       0.16384013       0.49126647 </v>
    <v>       0.33911851       0.54707214       0.49126508 </v>
    <v>       0.83911854       0.54707240       0.49126506 </v>
    <v>       0.08912307       0.85546165       0.54504596 </v>
    <v>       0.58912334       0.85546167       0.54504598 </v>
    <v>       0.33911189       0.35545641       0.05551082 </v>
    <v>       0.83911189       0.35545641       0.05551082 </v>
    <v>       0.08911189       0.85545641       0.05551082 </v>
    <v>       0.58911189       0.85545641       0.05551082 </v>
    <v>       0.08911189       0.35545641       0.20047039 </v>
    <v>       0.58911189       0.35545641       0.20047039 </v>
    <v>       0.33911189       0.85545641       0.20047039 </v>
    <v>       0.83911189       0.85545641       0.20047039 </v>
    <v>       0.33910527       0.35545123       0.34577750 </v>
    <v>       0.83910504       0.35545124       0.34577749 </v>
    <v>       0.08910097       0.85545482       0.34570300 </v>
    <v>       0.58910144       0.85545482       0.34570298 </v>
    <v>       0.08911033       0.35545344       0.48835531 </v>
    <v>       0.58911045       0.35545343       0.48835526 </v>
    <v>       0.33910817       0.85545145       0.49156631 </v>
    <v>       0.83910868       0.85545146       0.49156635 </v>
   </varray>
  </structure>
  <varray name="forces" >
   <v>       0.43348958       0.43483087      -0.00059014 </v>
   <v>       0.43349218       0.43482944      -0.00059014 </v>
   <v>      -0.42849688      -0.47118366       0.00376504 </v>
   <v>      -0.42849794      -0.47118627       0.00376773 </v>
   <v>      -0.47013713      -0.43030632      -0.00100906 </v>
   <v>      -0.47013372      -0.43030599      -0.00100742 </v>
   <v>       0.17456823       0.17490596      -0.00072126 </v>
   <v>       0.17456548       0.17490884      -0.00073302 </v>
   <v>      -0.09089198      -0.09261444      -0.00155141 </v>
   <v>      -0.09089074      -0.09261207      -0.00154939 </v>
   <v>      -0.00522001      -0.06099625       0.00058774 </v>
   <v>      -0.00522076      -0.06099159       0.00058999 </v>
   <v>      -0.06146763      -0.00628798       0.00282099 </v>
   <v>      -0.06146599      -0.00628461       0.00281981 </v>
   <v>       0.20899305       0.20703400      -0.00111050 </v>
   <v>       0.20899404       0.20703675      -0.00109581 </v>
   <v>       0.12367901       0.12358593       0.00107545 </v>
   <v>       0.12367791       0.12359216       0.00099535 </v>
   <v>       0.04049126       0.04662801      -0.00087740 </v>
   <v>       0.04044236       0.04666647      -0.00097019 </v>
   <v>       0.04582804       0.04179919      -0.00191066 </v>
   <v>       0.04587060       0.04175500      -0.00200446 </v>
   <v>      -0.34067023      -0.34051196      -0.00129811 </v>
   <v>      -0.34065662      -0.34049696      -0.00134384 </v>
   <v>       0.24040437       0.23966710       0.00014535 </v>
   <v>       0.24037504       0.23964168       0.00012261 </v>
   <v>       0.35940146       0.18586791       0.00109317 </v>
   <v>       0.35943022       0.18583873       0.00108796 </v>
   <v>       0.18501059       0.36040684      -0.00041654 </v>
   <v>       0.18498407       0.36044117      -0.00042241 </v>
   <v>       0.10859236       0.10701134       0.00090908 </v>
   <v>       0.10857885       0.10699071       0.00086870 </v>
   <v>      -0.59464938      -0.59325412      -0.00168805 </v>
   <v>      -0.59465404      -0.59324851      -0.00168507 </v>
   <v>       1.04692023       1.04717697      -0.00251351 </v>
   <v>       1.04691784       1.04717015      -0.00251393 </v>
   <v>      -0.19411353      -0.19288883      -0.00005139 </v>
   <v>      -0.19411974      -0.19289738      -0.00003788 </v>
   <v>      -0.16766221      -0.16584520      -0.00046627 </v>
   <v>      -0.16766696      -0.16584857      -0.00047054 </v>
   <v>      -0.19034232      -0.19096056       0.00158672 </v>
   <v>      -0.19033509      -0.19095522       0.00170143 </v>
   <v>      -0.04893228      -0.05014367       0.00211374 </v>
   <v>      -0.04890668      -0.05011747       0.00196154 </v>
   <v>      -0.11249784      -0.11175062      -0.00088015 </v>
   <v>      -0.11249010      -0.11174924      -0.00090921 </v>
   <v>      -0.26228734      -0.26216549       0.00129658 </v>
   <v>      -0.26229960      -0.26218221       0.00110875 </v>
  </varray>
  <varray name="stress" >
   <v>      -3.57977644       5.75709364       0.01062098 </v>
   <v>       5.75709359      -3.58140122      -0.02668027 </v>
   <v>       0.01062091      -0.02668023     -14.83810057 </v>
  </varray>
  <energy>
   <i name="e_fr_energy">   -339.84332255 </i>
   <i name="e_wo_entrp">   -339.82456449 </i>
   <i name="e_0_energy">     -0.03751611 </i>
  </energy>
  <time name="totalsc">  160.99  162.17</time>
 </calculation>
 <calculation>
  <scstep>
   <time name="dav">   29.27   29.28</time>
   <time name="total">   30.49   30.50</time>
   <energy>
    <i name="alphaZ">   1039.80595180 </i>
    <i name="ewald">  64091.38426928 </i>
    <i name="hartreedc"> -87278.58346057 </i>
    <i name="XCdc">    637.72299609 </i>
    <i name="pawpsdc">  30932.80013553 </i>
    <i name="pawaedc"> -30405.31335169 </i>
[...]
       <r>   -20.6387     0.0000     0.0000 </r>
       <r>   -20.5275     0.0000     0.0000 </r>
       <r>   -20.4162     0.0000     0.0000 </r>
       <r>   -20.3050     0.0000     0.0000 </r>
       <r>   -20.1938     0.0127     0.0014 </r>
       <r>   -20.0826     0.5101     0.0581 </r>
       <r>   -19.9714     1.7823     0.2564 </r>
       <r>   -19.8602     2.4275     0.5263 </r>
       <r>   -19.7490     2.4718     0.8012 </r>
       <r>   -19.6378     4.2867     1.2779 </r>
       <r>   -19.5266     5.3578     1.8738 </r>
       <r>   -19.4153     6.3263     2.5773 </r>
       <r>   -19.3041    12.0587     3.9184 </r>
       <r>   -19.1929     7.4615     4.7482 </r>
       <r>   -19.0817    13.4983     6.2494 </r>
       <r>   -18.9705    16.4873     8.0829 </r>
       <r>   -18.8593    15.0309     9.7545 </r>
       <r>   -18.7481    24.9875    12.5334 </r>
       <r>   -18.6369    21.2510    14.8968 </r>
       <r>   -18.5257    16.4560    16.7269 </r>
       <r>   -18.4144    29.3424    19.9901 </r>
       <r>   -18.3032    29.5316    23.2743 </r>
       <r>   -18.1920    24.4116    25.9891 </r>
       <r>   -18.0808    13.2930    27.4675 </r>
       <r>   -17.9696     4.0717    27.9203 </r>
       <r>   -17.8584     0.7131    27.9996 </r>
       <r>   -17.7472     0.0037    28.0000 </r>
       <r>   -17.6360     0.0000    28.0000 </r>
       <r>   -17.5248     0.0000    28.0000 </r>
       <r>   -17.4135     0.0000    28.0000 </r>
       <r>   -17.3023     0.0000    28.0000 </r>
       <r>   -17.1911     0.0000    28.0000 </r>
       <r>   -17.0799     0.0000    28.0000 </r>
       <r>   -16.9687     0.3085    28.0343 </r>
       <r>   -16.8575    10.2565    29.1749 </r>
       <r>   -16.7463    10.1354    30.3021 </r>
       <r>   -16.6351    13.7065    31.8264 </r>
       <r>   -16.5239     1.5600    31.9999 </r>
       <r>   -16.4126     0.0008    32.0000 </r>
       <r>   -16.3014     0.0000    32.0000 </r>
       <r>   -16.1902     0.0000    32.0000 </r>
       <r>   -16.0790     0.0000    32.0000 </r>
       <r>   -15.9678     0.0000    32.0000 </r>
       <r>   -15.8566     0.0000    32.0000 </r>
       <r>   -15.7454     0.0000    32.0000 </r>
       <r>   -15.6342     0.0000    32.0000 </r>
       <r>   -15.5230     0.0000    32.0000 </r>
       <r>   -15.4117     0.0000    32.0000 </r>
       <r>   -15.3005     0.0000    32.0000 </r>
       <r>   -15.1893     0.0000    32.0000 </r>
       <r>   -15.0781     0.0000    32.0000 </r>
       <r>   -14.9669     0.0000    32.0000 </r>
       <r>   -14.8557     0.0000    32.0000 </r>
       <r>   -14.7445     0.0000    32.0000 </r>
       <r>   -14.6333     0.0000    32.0000 </r>
       <r>   -14.5221     0.0000    32.0000 </r>
       <r>   -14.4108     0.0000    32.0000 </r>
       <r>   -14.2996     0.0000    32.0000 </r>
       <r>   -14.1884     0.0000    32.0000 </r>
       <r>   -14.0772     0.0000    32.0000 </r>
       <r>   -13.9660     0.0000    32.0000 </r>
       <r>   -13.8548     0.0000    32.0000 </r>
       <r>   -13.7436     0.0000    32.0000 </r>
       <r>   -13.6324     0.0000    32.0000 </r>
       <r>   -13.5211     0.0000    32.0000 </r>
       <r>   -13.4099     0.0000    32.0000 </r>
       <r>   -13.2987     0.0000    32.0000 </r>
       <r>   -13.1875     0.0000    32.0000 </r>
       <r>   -13.0763     0.0000    32.0000 </r>
       <r>   -12.9651     0.0000    32.0000 </r>
       <r>   -12.8539     0.0000    32.0000 </r>
       <r>   -12.7427     0.0000    32.0000 </r>
       <r>   -12.6315     0.0000    32.0000 </r>
       <r>   -12.5202     0.0000    32.0000 </r>
       <r>   -12.4090     0.0000    32.0000 </r>
       <r>   -12.2978     0.0000    32.0000 </r>
       <r>   -12.1866     0.0000    32.0000 </r>
       <r>   -12.0754     0.0000    32.0000 </r>
       <r>   -11.9642     0.0000    32.0000 </r>
       <r>   -11.8530     0.0000    32.0000 </r>
       <r>   -11.7418     0.0000    32.0000 </r>
       <r>   -11.6306     0.0000    32.0000 </r>
       <r>   -11.5193     0.0000    32.0000 </r>
       <r>   -11.4081     0.0000    32.0000 </r>
       <r>   -11.2969     0.0000    32.0000 </r>
       <r>   -11.1857     0.0000    32.0000 </r>
       <r>   -11.0745     0.0000    32.0000 </r>
       <r>   -10.9633     0.0000    32.0000 </r>
       <r>   -10.8521     0.0000    32.0000 </r>
       <r>   -10.7409     0.0000    32.0000 </r>
       <r>   -10.6297     0.0000    32.0000 </r>
       <r>   -10.5184     0.0000    32.0000 </r>
       <r>   -10.4072     0.0000    32.0000 </r>
       <r>   -10.2960     0.0000    32.0000 </r>
       <r>   -10.1848     0.0000    32.0000 </r>
       <r>   -10.0736     0.0000    32.0000 </r>
       <r>    -9.9624     0.0000    32.0000 </r>
       <r>    -9.8512     0.0000    32.0000 </r>
       <r>    -9.7400     0.0000    32.0000 </r>
       <r>    -9.6288     0.0000    32.0000 </r>
       <r>    -9.5175     0.0000    32.0000 </r>
       <r>    -9.4063     0.0000    32.0000 </r>
       <r>    -9.2951     0.0000    32.0000 </r>
       <r>    -9.1839     0.0000    32.0000 </r>
       <r>    -9.0727     0.0000    32.0000 </r>
       <r>    -8.9615     0.0000    32.0000 </r>
       <r>    -8.8503     0.0000    32.0000 </r>
       <r>    -8.7391     0.1124    32.0125 </r>
       <r>    -8.6279     1.0069    32.1245 </r>
       <r>    -8.5166     1.7761    32.3220 </r>
       <r>    -8.4054     2.8216    32.6358 </r>
       <r>    -8.2942     3.3243    33.0055 </r>
       <r>    -8.1830     6.4703    33.7251 </r>
       <r>    -8.0718     5.8535    34.3760 </r>
       <r>    -7.9606     9.9690    35.4847 </r>
       <r>    -7.8494     4.9767    36.0382 </r>
       <r>    -7.7382     5.6419    36.6656 </r>
       <r>    -7.6270     6.6024    37.3999 </r>
       <r>    -7.5157     7.5947    38.2445 </r>
       <r>    -7.4045     9.6971    39.3229 </r>
       <r>    -7.2933    13.1818    40.7889 </r>
       <r>    -7.1821     9.1615    41.8077 </r>
       <r>    -7.0709    22.3410    44.2923 </r>
       <r>    -6.9597    29.2236    47.5423 </r>
       <r>    -6.8485    28.9540    50.7623 </r>
       <r>    -6.7373    27.8434    53.8588 </r>
       <r>    -6.6261    24.4022    56.5726 </r>
       <r>    -6.5148    15.2679    58.2706 </r>
       <r>    -6.4036    15.5311    59.9978 </r>
       <r>    -6.2924    13.4678    61.4956 </r>
       <r>    -6.1812    13.1585    62.9589 </r>
       <r>    -6.0700    11.3646    64.2228 </r>
       <r>    -5.9588     8.9405    65.2171 </r>
       <r>    -5.8476    12.9858    66.6613 </r>
       <r>    -5.7364     9.8322    67.7547 </r>
       <r>    -5.6252    12.5719    69.1528 </r>
       <r>    -5.5139    12.3706    70.5286 </r>
       <r>    -5.4027    12.4200    71.9098 </r>
       <r>    -5.2915    11.1359    73.1483 </r>
       <r>    -5.1803    10.3935    74.3042 </r>
       <r>    -5.0691    12.3206    75.6743 </r>
       <r>    -4.9579    13.9475    77.2255 </r>
       <r>    -4.8467    13.3568    78.7109 </r>
       <r>    -4.7355    13.3667    80.1974 </r>
       <r>    -4.6243    22.6679    82.7183 </r>
       <r>    -4.5130    24.1050    85.3991 </r>
       <r>    -4.4018    15.0560    87.0735 </r>
       <r>    -4.2906    15.9067    88.8425 </r>
       <r>    -4.1794    24.3908    91.5550 </r>
       <r>    -4.0682    20.5704    93.8427 </r>
       <r>    -3.9570    20.7641    96.1519 </r>
       <r>    -3.8458    21.6902    98.5641 </r>
       <r>    -3.7346    14.1618   100.1390 </r>
       <r>    -3.6234    14.8987   101.7959 </r>
       <r>    -3.5121    21.2625   104.1605 </r>
       <r>    -3.4009    12.6615   105.5686 </r>
       <r>    -3.2897    13.9587   107.1210 </r>
       <r>    -3.1785    11.5611   108.4067 </r>
       <r>    -3.0673    12.8253   109.8330 </r>
       <r>    -2.9561    11.1480   111.0728 </r>
       <r>    -2.8449    14.0395   112.6342 </r>
       <r>    -2.7337     8.9826   113.6331 </r>
       <r>    -2.6225    20.5751   115.9213 </r>
       <r>    -2.5112     6.4136   116.6346 </r>
       <r>    -2.4000     7.4782   117.4662 </r>
       <r>    -2.2888    10.4885   118.6327 </r>
       <r>    -2.1776    11.3826   119.8986 </r>
       <r>    -2.0664    19.1795   122.0315 </r>
       <r>    -1.9552    19.5879   124.2099 </r>
       <r>    -1.8440    11.2778   125.4641 </r>
       <r>    -1.7328     8.5366   126.4135 </r>
       <r>    -1.6216     8.6363   127.3740 </r>
       <r>    -1.5103     5.0497   127.9355 </r>
       <r>    -1.3991     6.3669   128.6436 </r>
       <r>    -1.2879     9.2212   129.6691 </r>
       <r>    -1.1767    10.6954   130.8586 </r>
       <r>    -1.0655    19.6958   133.0489 </r>
       <r>    -0.9543    17.6767   135.0148 </r>
       <r>    -0.8431    30.7038   138.4294 </r>
       <r>    -0.7319    22.0488   140.8815 </r>
       <r>    -0.6207    23.6186   143.5081 </r>
       <r>    -0.5094    28.0836   146.6313 </r>
       <r>    -0.3982    19.2771   148.7752 </r>
       <r>    -0.2870    18.1515   150.7938 </r>
       <r>    -0.1758    12.4043   152.1733 </r>
       <r>    -0.0646    12.1830   153.5282 </r>
       <r>     0.0466    20.3688   155.7934 </r>
       <r>     0.1578    13.1681   157.2579 </r>
       <r>     0.2690    10.1471   158.3863 </r>
       <r>     0.3802    11.5323   159.6689 </r>
       <r>     0.4915    11.1484   160.9087 </r>
       <r>     0.6027    18.2531   162.9386 </r>
       <r>     0.7139    12.8890   164.3720 </r>
       <r>     0.8251    15.4448   166.0897 </r>
       <r>     0.9363    15.9749   167.8663 </r>
       <r>     1.0475    15.9541   169.6405 </r>
       <r>     1.1587    17.1227   171.5448 </r>
       <r>     1.2699    11.4357   172.8166 </r>
       <r>     1.3811    15.6207   174.5538 </r>
       <r>     1.4924    11.8535   175.8720 </r>
       <r>     1.6036    10.5308   177.0431 </r>
       <r>     1.7148    12.7660   178.4629 </r>
       <r>     1.8260     3.7837   178.8837 </r>
       <r>     1.9372     8.0840   179.7827 </r>
       <r>     2.0484     2.6843   180.0812 </r>
       <r>     2.1596     2.8771   180.4012 </r>
       <r>     2.2708     1.4987   180.5678 </r>
       <r>     2.3820     2.8033   180.8796 </r>
       <r>     2.4933     3.2196   181.2377 </r>
       <r>     2.6045     8.0315   182.1308 </r>
       <r>     2.7157     6.4187   182.8447 </r>
       <r>     2.8269     9.3681   183.8865 </r>
       <r>     2.9381     3.5680   184.2833 </r>
       <r>     3.0493     5.6474   184.9114 </r>
       <r>     3.1605     5.5364   185.5271 </r>
       <r>     3.2717    10.0662   186.6465 </r>
       <r>     3.3830     3.9911   187.0904 </r>
       <r>     3.4942    10.5234   188.2607 </r>
       <r>     3.6054    15.2843   189.9605 </r>
       <r>     3.7166     6.7265   190.7086 </r>
       <r>     3.8278     4.1663   191.1719 </r>
       <r>     3.9390     7.8248   192.0421 </r>
       <r>     4.0502    15.2918   193.7427 </r>
       <r>     4.1614     9.5416   194.8039 </r>
       <r>     4.2726     7.5388   195.6423 </r>
       <r>     4.3839     8.4842   196.5858 </r>
       <r>     4.4951     6.6700   197.3276 </r>
       <r>     4.6063    10.0055   198.4403 </r>
       <r>     4.7175    13.0836   199.8953 </r>
       <r>     4.8287    13.8170   201.4320 </r>
       <r>     4.9399    17.8627   203.4185 </r>
       <r>     5.0511    13.3982   204.9085 </r>
       <r>     5.1623     4.2029   205.3759 </r>
       <r>     5.2735     8.2609   206.2946 </r>
       <r>     5.3848     7.6985   207.1508 </r>
       <r>     5.4960     6.4925   207.8728 </r>
       <r>     5.6072     1.1328   207.9988 </r>
       <r>     5.7184     0.0159   208.0006 </r>
       <r>     5.8296     1.1036   208.1233 </r>
       <r>     5.9408     1.9725   208.3427 </r>
       <r>     6.0520     4.3690   208.8286 </r>
       <r>     6.1632     4.5576   209.3354 </r>
       <r>     6.2744     0.8056   209.4250 </r>
       <r>     6.3857     2.3734   209.6890 </r>
       <r>     6.4969     2.4182   209.9579 </r>
       <r>     6.6081     2.2821   210.2117 </r>
       <r>     6.7193     3.9546   210.6515 </r>
       <r>     6.8305     2.5606   210.9362 </r>
       <r>     6.9417     0.8344   211.0290 </r>
       <r>     7.0529     0.8577   211.1244 </r>
       <r>     7.1641     0.7710   211.2102 </r>
       <r>     7.2753     1.5658   211.3843 </r>
       <r>     7.3866     6.2896   212.0838 </r>
       <r>     7.4978     5.9981   212.7508 </r>
       <r>     7.6090     3.8124   213.1748 </r>
       <r>     7.7202     7.3037   213.9870 </r>
       <r>     7.8314     2.7782   214.2960 </r>
       <r>     7.9426     1.7812   214.4941 </r>
       <r>     8.0538     3.2128   214.8514 </r>
       <r>     8.1650     6.1238   215.5324 </r>
       <r>     8.2762     5.0429   216.0933 </r>
       <r>     8.3875     2.9431   216.4206 </r>
       <r>     8.4987     8.2862   217.3421 </r>
       <r>     8.6099     4.2387   217.8135 </r>
       <r>     8.7211     3.5894   218.2127 </r>
       <r>     8.8323     2.9010   218.5353 </r>
       <r>     8.9435     6.8780   219.3002 </r>
       <r>     9.0547     5.2112   219.8797 </r>
       <r>     9.1659     9.6321   220.9509 </r>
       <r>     9.2771     8.8594   221.9362 </r>
       <r>     9.3884     5.5787   222.5566 </r>
       <r>     9.4996    15.6896   224.3015 </r>
       <r>     9.6108     8.6641   225.2650 </r>
       <r>     9.7220     3.9535   225.7047 </r>
       <r>     9.8332     4.9066   226.2504 </r>
       <r>     9.9444     6.5976   226.9841 </r>
       <r>    10.0556     4.8263   227.5208 </r>
       <r>    10.1668     2.8788   227.8410 </r>
       <r>    10.2780     1.4073   227.9975 </r>
       <r>    10.3893     0.0227   228.0000 </r>
       <r>    10.5005     0.0000   228.0000 </r>
       <r>    10.6117     0.0000   228.0000 </r>
       <r>    10.7229     0.0000   228.0000 </r>
       <r>    10.8341     0.0000   228.0000 </r>
       <r>    10.9453     0.0000   228.0000 </r>
       <r>    11.0565     0.0000   228.0000 </r>
       <r>    11.1677     0.0000   228.0000 </r>
       <r>    11.2789     0.0000   228.0000 </r>
       <r>    11.3902     0.0000   228.0000 </r>
       <r>    11.5014     0.0000   228.0000 </r>
       <r>    11.6126     0.0000   228.0000 </r>
       <r>    11.7238     0.0000   228.0000 </r>
      </set>
     </set>
    </array>
   </total>
  </dos>
 </calculation>
 <structure name="finalpos" >
  <crystal>
   <varray name="basis" >
    <v>       0.00000000       0.00000000       6.36215693 </v>
    <v>       4.51451122      -4.51451122       0.00000000 </v>
    <v>      15.57162157      15.57162157       0.00000000 </v>
   </varray>
   <i name="volume">    894.49712776 </i>
   <varray name="rec_basis" >
    <v>       0.00000000       0.00000000       0.15717940 </v>
    <v>       0.11075396      -0.11075396       0.00000000 </v>
    <v>       0.03210969       0.03210969       0.00000000 </v>
   </varray>
  </crystal>
  <varray name="positions" >
   <v>       0.08911189       0.35545641       0.00000000 </v>
   <v>       0.58911189       0.35545641       0.00000000 </v>
   <v>       0.33911189       0.04692641       0.05551082 </v>
   <v>       0.83911189       0.04692641       0.05551082 </v>
   <v>       0.33911189       0.66398641       0.05551082 </v>
   <v>       0.83911189       0.66398641       0.05551082 </v>
   <v>       0.08911189       0.35545641       0.11102164 </v>
   <v>       0.58911189       0.35545641       0.11102164 </v>
   <v>       0.08911189       0.85545641       0.14495957 </v>
   <v>       0.58911189       0.85545641       0.14495957 </v>
   <v>       0.33911189       0.16398641       0.20047039 </v>
   <v>       0.83911189       0.16398641       0.20047039 </v>
   <v>       0.33911189       0.54692641       0.20047039 </v>
   <v>       0.83911189       0.54692641       0.20047039 </v>
   <v>       0.08911189       0.85545641       0.25598121 </v>
   <v>       0.58911189       0.85545641       0.25598121 </v>
   <v>       0.08913627       0.35542473       0.28946922 </v>
   <v>       0.58913630       0.35542477       0.28946921 </v>
   <v>       0.33913312       0.04669766       0.34596985 </v>
   <v>       0.83913312       0.04669775       0.34596985 </v>
   <v>       0.33910948       0.66418481       0.34594975 </v>
   <v>       0.83910950       0.66418472       0.34594976 </v>
   <v>       0.08915693       0.35571454       0.39989544 </v>
   <v>       0.58915691       0.35571454       0.39989546 </v>
   <v>       0.08915365       0.85549489       0.43608603 </v>
   <v>       0.58915362       0.85549487       0.43608604 </v>
   <v>       0.33913519       0.16537602       0.49406410 </v>
   <v>       0.83913516       0.16537601       0.49406411 </v>
   <v>       0.33915128       0.54555740       0.49404579 </v>
   <v>       0.83915127       0.54555741       0.49404579 </v>
   <v>       0.08914559       0.85548081       0.54665164 </v>
   <v>       0.58914558       0.85548080       0.54665164 </v>
   <v>       0.33911189       0.35545641       0.05551082 </v>
   <v>       0.83911189       0.35545641       0.05551082 </v>
   <v>       0.08911189       0.85545641       0.05551082 </v>
   <v>       0.58911189       0.85545641       0.05551082 </v>
   <v>       0.08911189       0.35545641       0.20047039 </v>
   <v>       0.58911189       0.35545641       0.20047039 </v>
   <v>       0.33911189       0.85545641       0.20047039 </v>
   <v>       0.83911189       0.85545641       0.20047039 </v>
   <v>       0.33913648       0.35542653       0.34488498 </v>
   <v>       0.83913642       0.35542653       0.34488497 </v>
   <v>       0.08911106       0.85543413       0.34633578 </v>
   <v>       0.58911109       0.85543412       0.34633577 </v>
   <v>       0.08913309       0.35544867       0.48810828 </v>
   <v>       0.58913310       0.35544866       0.48810828 </v>
   <v>       0.33914630       0.85544933       0.49288310 </v>
   <v>       0.83914636       0.85544932       0.49288310 </v>
  </varray>
  <varray name="selective"  type="logical" >
   <v type="logical" >  F  F  F </v>
   <v type="logical" >  F  F  F </v>
   <v type="logical" >  F  F  F </v>
   <v type="logical" >  F  F  F </v>
   <v type="logical" >  F  F  F </v>
   <v type="logical" >  F  F  F </v>
   <v type="logical" >  F  F  F </v>
   <v type="logical" >  F  F  F </v>
   <v type="logical" >  F  F  F </v>
   <v type="logical" >  F  F  F </v>
   <v type="logical" >  F  F  F </v>
   <v type="logical" >  F  F  F </v>
   <v type="logical" >  F  F  F </v>
   <v type="logical" >  F  F  F </v>
   <v type="logical" >  F  F  F </v>
   <v type="logical" >  F  F  F </v>
   <v type="logical" >  T  T  T </v>
   <v type="logical" >  T  T  T </v>
   <v type="logical" >  T  T  T </v>
   <v type="logical" >  T  T  T </v>
   <v type="logical" >  T  T  T </v>
   <v type="logical" >  T  T  T </v>
   <v type="logical" >  T  T  T </v>
   <v type="logical" >  T  T  T </v>
   <v type="logical" >  T  T  T </v>
   <v type="logical" >  T  T  T </v>
   <v type="logical" >  T  T  T </v>
   <v type="logical" >  T  T  T </v>
   <v type="logical" >  T  T  T </v>
   <v type="logical" >  T  T  T </v>
   <v type="logical" >  T  T  T </v>
   <v type="logical" >  T  T  T </v>
   <v type="logical" >  F  F  F </v>
   <v type="logical" >  F  F  F </v>
   <v type="logical" >  F  F  F </v>
   <v type="logical" >  F  F  F </v>
   <v type="logical" >  F  F  F </v>
   <v type="logical" >  F  F  F </v>
   <v type="logical" >  F  F  F </v>
   <v type="logical" >  F  F  F </v>
   <v type="logical" >  T  T  T </v>
   <v type="logical" >  T  T  T </v>
   <v type="logical" >  T  T  T </v>
   <v type="logical" >  T  T  T </v>
   <v type="logical" >  T  T  T </v>
   <v type="logical" >  T  T  T </v>
   <v type="logical" >  T  T  T </v>
   <v type="logical" >  T  T  T </v>
  </varray>
  <nose>
   <v>      -3.00000000       0.00000000       0.00010000       0.00010000 </v>
  </nose>
 </structure>
</modeling>
