IrO2_suf110_d3_2x1x4_2fix               
           1
     0.000000    0.000000    6.362157
     4.514511   -4.514511    0.000000
    15.571622   15.571622    0.000000
   O    Ir
  32  16
Direct configuration=     1
   0.08911189  0.35545641  0.00000000
   0.58911189  0.35545641  0.00000000
   0.33911189  0.04692641  0.05551082
   0.83911189  0.04692641  0.05551082
   0.33911189  0.66398641  0.05551082
   0.83911189  0.66398641  0.05551082
   0.08911189  0.35545641  0.11102164
   0.58911189  0.35545641  0.11102164
   0.08911189  0.85545641  0.14495957
   0.58911189  0.85545641  0.14495957
   0.33911189  0.16398641  0.20047039
   0.83911189  0.16398641  0.20047039
   0.33911189  0.54692641  0.20047039
   0.83911189  0.54692641  0.20047039
   0.08911189  0.85545641  0.25598121
   0.58911189  0.85545641  0.25598121
   0.08911189  0.35545641  0.28991915
   0.58911189  0.35545641  0.28991915
   0.33911189  0.04692641  0.34542996
   0.83911189  0.04692641  0.34542996
   0.33911189  0.66398641  0.34542996
   0.83911189  0.66398641  0.34542996
   0.08911189  0.35545641  0.40094078
   0.58911189  0.35545641  0.40094078
   0.08911189  0.85545641  0.43487872
   0.58911189  0.85545641  0.43487872
   0.33911189  0.16398641  0.49038954
   0.83911189  0.16398641  0.49038954
   0.33911189  0.54692641  0.49038954
   0.83911189  0.54692641  0.49038954
   0.08911189  0.85545641  0.54590036
   0.58911189  0.85545641  0.54590036
   0.33911189  0.35545641  0.05551082
   0.83911189  0.35545641  0.05551082
   0.08911189  0.85545641  0.05551082
   0.58911189  0.85545641  0.05551082
   0.08911189  0.35545641  0.20047039
   0.58911189  0.35545641  0.20047039
   0.33911189  0.85545641  0.20047039
   0.83911189  0.85545641  0.20047039
   0.33911189  0.35545641  0.34542996
   0.83911189  0.35545641  0.34542996
   0.08911189  0.85545641  0.34542996
   0.58911189  0.85545641  0.34542996
   0.08911189  0.35545641  0.49038954
   0.58911189  0.35545641  0.49038954
   0.33911189  0.85545641  0.49038954
   0.83911189  0.85545641  0.49038954
Direct configuration=     2
   0.08911189  0.35545641  0.00000000
   0.58911189  0.35545641  0.00000000
   0.33911189  0.04692641  0.05551082
   0.83911189  0.04692641  0.05551082
   0.33911189  0.66398641  0.05551082
   0.83911189  0.66398641  0.05551082
   0.08911189  0.35545641  0.11102164
   0.58911189  0.35545641  0.11102164
   0.08911189  0.85545641  0.14495957
   0.58911189  0.85545641  0.14495957
   0.33911189  0.16398641  0.20047039
   0.83911189  0.16398641  0.20047039
   0.33911189  0.54692641  0.20047039
   0.83911189  0.54692641  0.20047039
   0.08911189  0.85545641  0.25598121
   0.58911189  0.85545641  0.25598121
   0.08911273  0.35545591  0.28983173
   0.58911287  0.35545590  0.28983172
   0.33911554  0.04687457  0.34544621
   0.83911571  0.04687468  0.34544621
   0.33911282  0.66404047  0.34544659
   0.83911299  0.66404036  0.34544659
   0.08911258  0.35545701  0.40099823
   0.58911269  0.35545701  0.40099822
   0.08911220  0.85545880  0.43476706
   0.58911229  0.85545880  0.43476709
   0.33911128  0.16394004  0.49066794
   0.83911129  0.16393997  0.49066794
   0.33911399  0.54697268  0.49066749
   0.83911400  0.54697276  0.49066749
   0.08911544  0.85545808  0.54562911
   0.58911553  0.85545808  0.54562912
   0.33911189  0.35545641  0.05551082
   0.83911189  0.35545641  0.05551082
   0.08911189  0.85545641  0.05551082
   0.58911189  0.85545641  0.05551082
   0.08911189  0.35545641  0.20047039
   0.58911189  0.35545641  0.20047039
   0.33911189  0.85545641  0.20047039
   0.83911189  0.85545641  0.20047039
   0.33910979  0.35545477  0.34554029
   0.83910972  0.35545477  0.34554029
   0.08910843  0.85545591  0.34551664
   0.58910858  0.85545591  0.34551664
   0.08911140  0.35545547  0.48974373
   0.58911144  0.35545546  0.48974371
   0.33911071  0.85545484  0.49076313
   0.83911087  0.85545484  0.49076314
Direct configuration=     3
   0.08911189  0.35545641  0.00000000
   0.58911189  0.35545641  0.00000000
   0.33911189  0.04692641  0.05551082
   0.83911189  0.04692641  0.05551082
   0.33911189  0.66398641  0.05551082
   0.83911189  0.66398641  0.05551082
   0.08911189  0.35545641  0.11102164
   0.58911189  0.35545641  0.11102164
   0.08911189  0.85545641  0.14495957
   0.58911189  0.85545641  0.14495957
   0.33911189  0.16398641  0.20047039
   0.83911189  0.16398641  0.20047039
   0.33911189  0.54692641  0.20047039
   0.83911189  0.54692641  0.20047039
   0.08911189  0.85545641  0.25598121
   0.58911189  0.85545641  0.25598121
   0.08911424  0.35545500  0.28967420
   0.58911464  0.35545499  0.28967417
   0.33912212  0.04678116  0.34547550
   0.83912258  0.04678146  0.34547550
   0.33911449  0.66413790  0.34547654
   0.83911497  0.66413759  0.34547654
   0.08911382  0.35545810  0.40110176
   0.58911413  0.35545809  0.40110174
   0.08911274  0.85546310  0.43456585
   0.58911301  0.85546310  0.43456592
   0.33911018  0.16385649  0.49116963
   0.83911021  0.16385629  0.49116963
   0.33911778  0.54705605  0.49116839
   0.83911780  0.54705627  0.49116837
   0.08912184  0.85546107  0.54514032
   0.58912207  0.85546109  0.54514033
   0.33911189  0.35545641  0.05551082
   0.83911189  0.35545641  0.05551082
   0.08911189  0.85545641  0.05551082
   0.58911189  0.85545641  0.05551082
   0.08911189  0.35545641  0.20047039
   0.58911189  0.35545641  0.20047039
   0.33911189  0.85545641  0.20047039
   0.83911189  0.85545641  0.20047039
   0.33910600  0.35545181  0.34573912
   0.83910579  0.35545181  0.34573911
   0.08910218  0.85545500  0.34567284
   0.58910260  0.85545499  0.34567283
   0.08911051  0.35545377  0.48857996
   0.58911061  0.35545376  0.48857991
   0.33910858  0.85545200  0.49143636
   0.83910903  0.85545200  0.49143639
Direct configuration=     4
   0.08911189  0.35545641  0.00000000
   0.58911189  0.35545641  0.00000000
   0.33911189  0.04692641  0.05551082
   0.83911189  0.04692641  0.05551082
   0.33911189  0.66398641  0.05551082
   0.83911189  0.66398641  0.05551082
   0.08911189  0.35545641  0.11102164
   0.58911189  0.35545641  0.11102164
   0.08911189  0.85545641  0.14495957
   0.58911189  0.85545641  0.14495957
   0.33911189  0.16398641  0.20047039
   0.83911189  0.16398641  0.20047039
   0.33911189  0.54692641  0.20047039
   0.83911189  0.54692641  0.20047039
   0.08911189  0.85545641  0.25598121
   0.58911189  0.85545641  0.25598121
   0.08911453  0.35545483  0.28964379
   0.58911498  0.35545481  0.28964376
   0.33912339  0.04676313  0.34548115
   0.83912391  0.04676347  0.34548115
   0.33911481  0.66415670  0.34548232
   0.83911535  0.66415636  0.34548232
   0.08911406  0.35545831  0.40112175
   0.58911440  0.35545830  0.40112172
   0.08911285  0.85546393  0.43452701
   0.58911315  0.85546393  0.43452709
   0.33910997  0.16384036  0.49126647
   0.83911001  0.16384013  0.49126647
   0.33911851  0.54707214  0.49126508
   0.83911854  0.54707240  0.49126506
   0.08912307  0.85546165  0.54504596
   0.58912334  0.85546167  0.54504598
   0.33911189  0.35545641  0.05551082
   0.83911189  0.35545641  0.05551082
   0.08911189  0.85545641  0.05551082
   0.58911189  0.85545641  0.05551082
   0.08911189  0.35545641  0.20047039
   0.58911189  0.35545641  0.20047039
   0.33911189  0.85545641  0.20047039
   0.83911189  0.85545641  0.20047039
   0.33910527  0.35545123  0.34577750
   0.83910504  0.35545124  0.34577749
   0.08910097  0.85545482  0.34570300
   0.58910144  0.85545482  0.34570298
   0.08911033  0.35545344  0.48835531
   0.58911045  0.35545343  0.48835526
   0.33910817  0.85545145  0.49156631
   0.83910868  0.85545146  0.49156635
Direct configuration=     5
   0.08911189  0.35545641  0.00000000
   0.58911189  0.35545641  0.00000000
   0.33911189  0.04692641  0.05551082
   0.83911189  0.04692641  0.05551082
   0.33911189  0.66398641  0.05551082
   0.83911189  0.66398641  0.05551082
   0.08911189  0.35545641  0.11102164
   0.58911189  0.35545641  0.11102164
   0.08911189  0.85545641  0.14495957
   0.58911189  0.85545641  0.14495957
   0.33911189  0.16398641  0.20047039
   0.83911189  0.16398641  0.20047039
   0.33911189  0.54692641  0.20047039
   0.83911189  0.54692641  0.20047039
   0.08911189  0.85545641  0.25598121
   0.58911189  0.85545641  0.25598121
   0.08911712  0.35545482  0.28972634
   0.58911744  0.35545479  0.28972631
   0.33912261  0.04673774  0.34552476
   0.83912298  0.04673799  0.34552476
   0.33911095  0.66417955  0.34552627
   0.83911134  0.66417931  0.34552628
   0.08911146  0.35545825  0.40083771
   0.58911173  0.35545824  0.40083769
   0.08911326  0.85546579  0.43470522
   0.58911353  0.85546578  0.43470528
   0.33911215  0.16409122  0.49159400
   0.83911218  0.16409106  0.49159400
   0.33911825  0.54681841  0.49159254
   0.83911827  0.54681859  0.49159252
   0.08912614  0.85546458  0.54505772
   0.58912634  0.85546462  0.54505772
   0.33911189  0.35545641  0.05551082
   0.83911189  0.35545641  0.05551082
   0.08911189  0.85545641  0.05551082
   0.58911189  0.85545641  0.05551082
   0.08911189  0.35545641  0.20047039
   0.58911189  0.35545641  0.20047039
   0.33911189  0.85545641  0.20047039
   0.83911189  0.85545641  0.20047039
   0.33910806  0.35545167  0.34564264
   0.83910805  0.35545168  0.34564264
   0.08910449  0.85545652  0.34568587
   0.58910467  0.85545651  0.34568588
   0.08910827  0.35545200  0.48805655
   0.58910834  0.35545200  0.48805650
   0.33911062  0.85545077  0.49144933
   0.83911076  0.85545079  0.49144935
Direct configuration=     6
   0.08911189  0.35545641  0.00000000
   0.58911189  0.35545641  0.00000000
   0.33911189  0.04692641  0.05551082
   0.83911189  0.04692641  0.05551082
   0.33911189  0.66398641  0.05551082
   0.83911189  0.66398641  0.05551082
   0.08911189  0.35545641  0.11102164
   0.58911189  0.35545641  0.11102164
   0.08911189  0.85545641  0.14495957
   0.58911189  0.85545641  0.14495957
   0.33911189  0.16398641  0.20047039
   0.83911189  0.16398641  0.20047039
   0.33911189  0.54692641  0.20047039
   0.83911189  0.54692641  0.20047039
   0.08911189  0.85545641  0.25598121
   0.58911189  0.85545641  0.25598121
   0.08912401  0.35545478  0.28994569
   0.58912398  0.35545472  0.28994566
   0.33912055  0.04667029  0.34564065
   0.83912052  0.04667027  0.34564064
   0.33910070  0.66424027  0.34564306
   0.83910069  0.66424029  0.34564307
   0.08910454  0.35545810  0.40008297
   0.58910464  0.35545809  0.40008297
   0.08911434  0.85547074  0.43517874
   0.58911457  0.85547072  0.43517876
   0.33911795  0.16475779  0.49246430
   0.83911796  0.16475781  0.49246431
   0.33911757  0.54614419  0.49246265
   0.83911757  0.54614419  0.49246264
   0.08913429  0.85547237  0.54508898
   0.58913433  0.85547244  0.54508894
   0.33911189  0.35545641  0.05551082
   0.83911189  0.35545641  0.05551082
   0.08911189  0.85545641  0.05551082
   0.58911189  0.85545641  0.05551082
   0.08911189  0.35545641  0.20047039
   0.58911189  0.35545641  0.20047039
   0.33911189  0.85545641  0.20047039
   0.83911189  0.85545641  0.20047039
   0.33911548  0.35545283  0.34528430
   0.83911607  0.35545285  0.34528432
   0.08911382  0.85546102  0.34564035
   0.58911325  0.85546101  0.34564042
   0.08910279  0.35544819  0.48726270
   0.58910273  0.35544822  0.48726264
   0.33911712  0.85544899  0.49113847
   0.83911631  0.85544902  0.49113847
Direct configuration=     7
   0.08911189  0.35545641  0.00000000
   0.58911189  0.35545641  0.00000000
   0.33911189  0.04692641  0.05551082
   0.83911189  0.04692641  0.05551082
   0.33911189  0.66398641  0.05551082
   0.83911189  0.66398641  0.05551082
   0.08911189  0.35545641  0.11102164
   0.58911189  0.35545641  0.11102164
   0.08911189  0.85545641  0.14495957
   0.58911189  0.85545641  0.14495957
   0.33911189  0.16398641  0.20047039
   0.83911189  0.16398641  0.20047039
   0.33911189  0.54692641  0.20047039
   0.83911189  0.54692641  0.20047039
   0.08911189  0.85545641  0.25598121
   0.58911189  0.85545641  0.25598121
   0.08912257  0.35545365  0.28984986
   0.58912247  0.35545356  0.28984987
   0.33912665  0.04667188  0.34570008
   0.83912659  0.04667174  0.34570007
   0.33910047  0.66424242  0.34570291
   0.83910043  0.66424255  0.34570291
   0.08911600  0.35546189  0.39961758
   0.58911603  0.35546186  0.39961755
   0.08911035  0.85547302  0.43513567
   0.58911042  0.85547300  0.43513565
   0.33912072  0.16512382  0.49277494
   0.83912064  0.16512388  0.49277494
   0.33911866  0.54577550  0.49277419
   0.83911856  0.54577546  0.49277419
   0.08913886  0.85547597  0.54504569
   0.58913886  0.85547608  0.54504569
   0.33911189  0.35545641  0.05551082
   0.83911189  0.35545641  0.05551082
   0.08911189  0.85545641  0.05551082
   0.58911189  0.85545641  0.05551082
   0.08911189  0.35545641  0.20047039
   0.58911189  0.35545641  0.20047039
   0.33911189  0.85545641  0.20047039
   0.83911189  0.85545641  0.20047039
   0.33911191  0.35545026  0.34501974
   0.83911193  0.35545027  0.34501975
   0.08910577  0.85545709  0.34578242
   0.58910575  0.85545707  0.34578245
   0.08910383  0.35544566  0.48735404
   0.58910380  0.35544568  0.48735401
   0.33912074  0.85545010  0.49137999
   0.83912073  0.85545014  0.49137998
Direct configuration=     8
   0.08911189  0.35545641  0.00000000
   0.58911189  0.35545641  0.00000000
   0.33911189  0.04692641  0.05551082
   0.83911189  0.04692641  0.05551082
   0.33911189  0.66398641  0.05551082
   0.83911189  0.66398641  0.05551082
   0.08911189  0.35545641  0.11102164
   0.58911189  0.35545641  0.11102164
   0.08911189  0.85545641  0.14495957
   0.58911189  0.85545641  0.14495957
   0.33911189  0.16398641  0.20047039
   0.83911189  0.16398641  0.20047039
   0.33911189  0.54692641  0.20047039
   0.83911189  0.54692641  0.20047039
   0.08911189  0.85545641  0.25598121
   0.58911189  0.85545641  0.25598121
   0.08912230  0.35545344  0.28983204
   0.58912219  0.35545335  0.28983206
   0.33912779  0.04667217  0.34571113
   0.83912771  0.04667202  0.34571112
   0.33910043  0.66424282  0.34571403
   0.83910038  0.66424297  0.34571403
   0.08911813  0.35546260  0.39953106
   0.58911814  0.35546256  0.39953102
   0.08910960  0.85547345  0.43512766
   0.58910964  0.85547342  0.43512764
   0.33912124  0.16519187  0.49283268
   0.83912114  0.16519194  0.49283268
   0.33911886  0.54570695  0.49283211
   0.83911875  0.54570691  0.49283211
   0.08913971  0.85547664  0.54503764
   0.58913970  0.85547676  0.54503765
   0.33911189  0.35545641  0.05551082
   0.83911189  0.35545641  0.05551082
   0.08911189  0.85545641  0.05551082
   0.58911189  0.85545641  0.05551082
   0.08911189  0.35545641  0.20047039
   0.58911189  0.35545641  0.20047039
   0.33911189  0.85545641  0.20047039
   0.83911189  0.85545641  0.20047039
   0.33911125  0.35544978  0.34497056
   0.83911116  0.35544979  0.34497056
   0.08910427  0.85545636  0.34580883
   0.58910436  0.85545634  0.34580886
   0.08910403  0.35544519  0.48737103
   0.58910400  0.35544521  0.48737099
   0.33912142  0.85545031  0.49142488
   0.83912155  0.85545035  0.49142488
Direct configuration=     9
   0.08911189  0.35545641  0.00000000
   0.58911189  0.35545641  0.00000000
   0.33911189  0.04692641  0.05551082
   0.83911189  0.04692641  0.05551082
   0.33911189  0.66398641  0.05551082
   0.83911189  0.66398641  0.05551082
   0.08911189  0.35545641  0.11102164
   0.58911189  0.35545641  0.11102164
   0.08911189  0.85545641  0.14495957
   0.58911189  0.85545641  0.14495957
   0.33911189  0.16398641  0.20047039
   0.83911189  0.16398641  0.20047039
   0.33911189  0.54692641  0.20047039
   0.83911189  0.54692641  0.20047039
   0.08911189  0.85545641  0.25598121
   0.58911189  0.85545641  0.25598121
   0.08912176  0.35545301  0.28979642
   0.58912163  0.35545292  0.28979645
   0.33913006  0.04667276  0.34573323
   0.83912997  0.04667256  0.34573322
   0.33910034  0.66424362  0.34573629
   0.83910028  0.66424381  0.34573628
   0.08912240  0.35546401  0.39935803
   0.58912238  0.35546397  0.39935798
   0.08910812  0.85547430  0.43511165
   0.58910810  0.85547427  0.43511162
   0.33912227  0.16532796  0.49294818
   0.83912213  0.16532805  0.49294818
   0.33911927  0.54556987  0.49294794
   0.83911912  0.54556981  0.49294795
   0.08914141  0.85547798  0.54502155
   0.58914139  0.85547811  0.54502156
   0.33911189  0.35545641  0.05551082
   0.83911189  0.35545641  0.05551082
   0.08911189  0.85545641  0.05551082
   0.58911189  0.85545641  0.05551082
   0.08911189  0.35545641  0.20047039
   0.58911189  0.35545641  0.20047039
   0.33911189  0.85545641  0.20047039
   0.83911189  0.85545641  0.20047039
   0.33910992  0.35544882  0.34487220
   0.83910962  0.35544884  0.34487220
   0.08910128  0.85545490  0.34586166
   0.58910157  0.85545488  0.34586166
   0.08910441  0.35544425  0.48740499
   0.58910440  0.35544427  0.48740496
   0.33912276  0.85545072  0.49151468
   0.83912320  0.85545077  0.49151468
Direct configuration=    10
   0.08911189  0.35545641  0.00000000
   0.58911189  0.35545641  0.00000000
   0.33911189  0.04692641  0.05551082
   0.83911189  0.04692641  0.05551082
   0.33911189  0.66398641  0.05551082
   0.83911189  0.66398641  0.05551082
   0.08911189  0.35545641  0.11102164
   0.58911189  0.35545641  0.11102164
   0.08911189  0.85545641  0.14495957
   0.58911189  0.85545641  0.14495957
   0.33911189  0.16398641  0.20047039
   0.83911189  0.16398641  0.20047039
   0.33911189  0.54692641  0.20047039
   0.83911189  0.54692641  0.20047039
   0.08911189  0.85545641  0.25598121
   0.58911189  0.85545641  0.25598121
   0.08912068  0.35545280  0.28955136
   0.58912061  0.35545272  0.28955135
   0.33912750  0.04668739  0.34575284
   0.83912743  0.04668738  0.34575282
   0.33909691  0.66422402  0.34575591
   0.83909685  0.66422404  0.34575590
   0.08912140  0.35547191  0.39944581
   0.58912136  0.35547189  0.39944580
   0.08910515  0.85547340  0.43513760
   0.58910516  0.85547337  0.43513761
   0.33912357  0.16531139  0.49303843
   0.83912353  0.16531143  0.49303843
   0.33912758  0.54559647  0.49303783
   0.83912754  0.54559645  0.49303784
   0.08914422  0.85548022  0.54512434
   0.58914420  0.85548035  0.54512434
   0.33911189  0.35545641  0.05551082
   0.83911189  0.35545641  0.05551082
   0.08911189  0.85545641  0.05551082
   0.58911189  0.85545641  0.05551082
   0.08911189  0.35545641  0.20047039
   0.58911189  0.35545641  0.20047039
   0.33911189  0.85545641  0.20047039
   0.83911189  0.85545641  0.20047039
   0.33911720  0.35544691  0.34472954
   0.83911728  0.35544691  0.34472954
   0.08910559  0.85545532  0.34589075
   0.58910548  0.85545531  0.34589075
   0.08910636  0.35544423  0.48745837
   0.58910636  0.35544423  0.48745835
   0.33912232  0.85544776  0.49162045
   0.83912219  0.85544778  0.49162046
Direct configuration=    11
   0.08911189  0.35545641  0.00000000
   0.58911189  0.35545641  0.00000000
   0.33911189  0.04692641  0.05551082
   0.83911189  0.04692641  0.05551082
   0.33911189  0.66398641  0.05551082
   0.83911189  0.66398641  0.05551082
   0.08911189  0.35545641  0.11102164
   0.58911189  0.35545641  0.11102164
   0.08911189  0.85545641  0.14495957
   0.58911189  0.85545641  0.14495957
   0.33911189  0.16398641  0.20047039
   0.83911189  0.16398641  0.20047039
   0.33911189  0.54692641  0.20047039
   0.83911189  0.54692641  0.20047039
   0.08911189  0.85545641  0.25598121
   0.58911189  0.85545641  0.25598121
   0.08912026  0.35545272  0.28945502
   0.58912022  0.35545264  0.28945500
   0.33912650  0.04669314  0.34576055
   0.83912643  0.04669321  0.34576053
   0.33909557  0.66421631  0.34576362
   0.83909551  0.66421627  0.34576361
   0.08912101  0.35547502  0.39948032
   0.58912097  0.35547500  0.39948033
   0.08910398  0.85547305  0.43514781
   0.58910400  0.85547302  0.43514783
   0.33912408  0.16530488  0.49307391
   0.83912408  0.16530490  0.49307391
   0.33913085  0.54560693  0.49307317
   0.83913085  0.54560693  0.49307318
   0.08914532  0.85548111  0.54516474
   0.58914530  0.85548123  0.54516474
   0.33911189  0.35545641  0.05551082
   0.83911189  0.35545641  0.05551082
   0.08911189  0.85545641  0.05551082
   0.58911189  0.85545641  0.05551082
   0.08911189  0.35545641  0.20047039
   0.58911189  0.35545641  0.20047039
   0.33911189  0.85545641  0.20047039
   0.83911189  0.85545641  0.20047039
   0.33912006  0.35544616  0.34467347
   0.83912030  0.35544615  0.34467346
   0.08910729  0.85545549  0.34590219
   0.58910702  0.85545548  0.34590218
   0.08910713  0.35544422  0.48747936
   0.58910713  0.35544421  0.48747933
   0.33912214  0.85544659  0.49166203
   0.83912179  0.85544660  0.49166204
Direct configuration=    12
   0.08911189  0.35545641  0.00000000
   0.58911189  0.35545641  0.00000000
   0.33911189  0.04692641  0.05551082
   0.83911189  0.04692641  0.05551082
   0.33911189  0.66398641  0.05551082
   0.83911189  0.66398641  0.05551082
   0.08911189  0.35545641  0.11102164
   0.58911189  0.35545641  0.11102164
   0.08911189  0.85545641  0.14495957
   0.58911189  0.85545641  0.14495957
   0.33911189  0.16398641  0.20047039
   0.83911189  0.16398641  0.20047039
   0.33911189  0.54692641  0.20047039
   0.83911189  0.54692641  0.20047039
   0.08911189  0.85545641  0.25598121
   0.58911189  0.85545641  0.25598121
   0.08911941  0.35545256  0.28926235
   0.58911942  0.35545248  0.28926230
   0.33912449  0.04670465  0.34577596
   0.83912443  0.04670486  0.34577595
   0.33909287  0.66420090  0.34577905
   0.83909281  0.66420072  0.34577904
   0.08912022  0.35548123  0.39954934
   0.58912017  0.35548123  0.39954937
   0.08910165  0.85547234  0.43516822
   0.58910168  0.85547231  0.43516826
   0.33912510  0.16529185  0.49314487
   0.83912519  0.16529184  0.49314487
   0.33913738  0.54562784  0.49314384
   0.83913747  0.54562788  0.49314385
   0.08914753  0.85548287  0.54524556
   0.58914751  0.85548299  0.54524554
   0.33911189  0.35545641  0.05551082
   0.83911189  0.35545641  0.05551082
   0.08911189  0.85545641  0.05551082
   0.58911189  0.85545641  0.05551082
   0.08911189  0.35545641  0.20047039
   0.58911189  0.35545641  0.20047039
   0.33911189  0.85545641  0.20047039
   0.83911189  0.85545641  0.20047039
   0.33912578  0.35544465  0.34456131
   0.83912633  0.35544464  0.34456129
   0.08911068  0.85545582  0.34592507
   0.58911010  0.85545581  0.34592505
   0.08910866  0.35544421  0.48752133
   0.58910867  0.35544418  0.48752131
   0.33912178  0.85544426  0.49174519
   0.83912100  0.85544425  0.49174520
Direct configuration=    13
   0.08911189  0.35545641  0.00000000
   0.58911189  0.35545641  0.00000000
   0.33911189  0.04692641  0.05551082
   0.83911189  0.04692641  0.05551082
   0.33911189  0.66398641  0.05551082
   0.83911189  0.66398641  0.05551082
   0.08911189  0.35545641  0.11102164
   0.58911189  0.35545641  0.11102164
   0.08911189  0.85545641  0.14495957
   0.58911189  0.85545641  0.14495957
   0.33911189  0.16398641  0.20047039
   0.83911189  0.16398641  0.20047039
   0.33911189  0.54692641  0.20047039
   0.83911189  0.54692641  0.20047039
   0.08911189  0.85545641  0.25598121
   0.58911189  0.85545641  0.25598121
   0.08913276  0.35545214  0.28920113
   0.58913279  0.35545208  0.28920113
   0.33912532  0.04672503  0.34577719
   0.83912539  0.04672502  0.34577718
   0.33910184  0.66417802  0.34577903
   0.83910190  0.66417803  0.34577903
   0.08912511  0.35549941  0.39951108
   0.58912511  0.35549942  0.39951106
   0.08910300  0.85547235  0.43528652
   0.58910296  0.85547231  0.43528649
   0.33911794  0.16523979  0.49323361
   0.83911791  0.16523977  0.49323361
   0.33913732  0.54567356  0.49322950
   0.83913728  0.54567358  0.49322951
   0.08915094  0.85548188  0.54542330
   0.58915095  0.85548199  0.54542331
   0.33911189  0.35545641  0.05551082
   0.83911189  0.35545641  0.05551082
   0.08911189  0.85545641  0.05551082
   0.58911189  0.85545641  0.05551082
   0.08911189  0.35545641  0.20047039
   0.58911189  0.35545641  0.20047039
   0.33911189  0.85545641  0.20047039
   0.83911189  0.85545641  0.20047039
   0.33911581  0.35544208  0.34457134
   0.83911551  0.35544208  0.34457133
   0.08909761  0.85545051  0.34593199
   0.58909797  0.85545051  0.34593198
   0.08911864  0.35545188  0.48763048
   0.58911866  0.35545186  0.48763048
   0.33912415  0.85545113  0.49178223
   0.83912469  0.85545113  0.49178223
Direct configuration=    14
   0.08911189  0.35545641  0.00000000
   0.58911189  0.35545641  0.00000000
   0.33911189  0.04692641  0.05551082
   0.83911189  0.04692641  0.05551082
   0.33911189  0.66398641  0.05551082
   0.83911189  0.66398641  0.05551082
   0.08911189  0.35545641  0.11102164
   0.58911189  0.35545641  0.11102164
   0.08911189  0.85545641  0.14495957
   0.58911189  0.85545641  0.14495957
   0.33911189  0.16398641  0.20047039
   0.83911189  0.16398641  0.20047039
   0.33911189  0.54692641  0.20047039
   0.83911189  0.54692641  0.20047039
   0.08911189  0.85545641  0.25598121
   0.58911189  0.85545641  0.25598121
   0.08914202  0.35545185  0.28915866
   0.58914206  0.35545180  0.28915870
   0.33912590  0.04673917  0.34577804
   0.83912605  0.04673901  0.34577803
   0.33910806  0.66416214  0.34577902
   0.83910820  0.66416229  0.34577902
   0.08912851  0.35551203  0.39948454
   0.58912853  0.35551204  0.39948448
   0.08910394  0.85547235  0.43536860
   0.58910385  0.85547231  0.43536852
   0.33911297  0.16520367  0.49329518
   0.83911286  0.16520365  0.49329518
   0.33913728  0.54570528  0.49328892
   0.83913715  0.54570528  0.49328893
   0.08915331  0.85548119  0.54554661
   0.58915333  0.85548130  0.54554665
   0.33911189  0.35545641  0.05551082
   0.83911189  0.35545641  0.05551082
   0.08911189  0.85545641  0.05551082
   0.58911189  0.85545641  0.05551082
   0.08911189  0.35545641  0.20047039
   0.58911189  0.35545641  0.20047039
   0.33911189  0.85545641  0.20047039
   0.83911189  0.85545641  0.20047039
   0.33910890  0.35544029  0.34457830
   0.83910801  0.35544031  0.34457830
   0.08908855  0.85544682  0.34593679
   0.58908956  0.85544682  0.34593679
   0.08912556  0.35545720  0.48770620
   0.58912559  0.35545718  0.48770622
   0.33912578  0.85545591  0.49180792
   0.83912725  0.85545591  0.49180791
Direct configuration=    15
   0.08911189  0.35545641  0.00000000
   0.58911189  0.35545641  0.00000000
   0.33911189  0.04692641  0.05551082
   0.83911189  0.04692641  0.05551082
   0.33911189  0.66398641  0.05551082
   0.83911189  0.66398641  0.05551082
   0.08911189  0.35545641  0.11102164
   0.58911189  0.35545641  0.11102164
   0.08911189  0.85545641  0.14495957
   0.58911189  0.85545641  0.14495957
   0.33911189  0.16398641  0.20047039
   0.83911189  0.16398641  0.20047039
   0.33911189  0.54692641  0.20047039
   0.83911189  0.54692641  0.20047039
   0.08911189  0.85545641  0.25598121
   0.58911189  0.85545641  0.25598121
   0.08914754  0.35545185  0.28917556
   0.58914758  0.35545181  0.28917559
   0.33912204  0.04674604  0.34577838
   0.83912219  0.04674586  0.34577837
   0.33910860  0.66415222  0.34577826
   0.83910873  0.66415238  0.34577826
   0.08912751  0.35552470  0.39949066
   0.58912754  0.35552470  0.39949060
   0.08910515  0.85547296  0.43542389
   0.58910508  0.85547292  0.43542381
   0.33911260  0.16519122  0.49334989
   0.83911250  0.16519120  0.49334990
   0.33913902  0.54571953  0.49334129
   0.83913891  0.54571952  0.49334130
   0.08915558  0.85548054  0.54564268
   0.58915559  0.85548064  0.54564271
   0.33911189  0.35545641  0.05551082
   0.83911189  0.35545641  0.05551082
   0.08911189  0.85545641  0.05551082
   0.58911189  0.85545641  0.05551082
   0.08911189  0.35545641  0.20047039
   0.58911189  0.35545641  0.20047039
   0.33911189  0.85545641  0.20047039
   0.83911189  0.85545641  0.20047039
   0.33911208  0.35543911  0.34458259
   0.83911127  0.35543913  0.34458260
   0.08908882  0.85544458  0.34596274
   0.58908973  0.85544459  0.34596275
   0.08912716  0.35545790  0.48774896
   0.58912717  0.35545788  0.48774899
   0.33912688  0.85545800  0.49189413
   0.83912821  0.85545801  0.49189412
Direct configuration=    16
   0.08911189  0.35545641  0.00000000
   0.58911189  0.35545641  0.00000000
   0.33911189  0.04692641  0.05551082
   0.83911189  0.04692641  0.05551082
   0.33911189  0.66398641  0.05551082
   0.83911189  0.66398641  0.05551082
   0.08911189  0.35545641  0.11102164
   0.58911189  0.35545641  0.11102164
   0.08911189  0.85545641  0.14495957
   0.58911189  0.85545641  0.14495957
   0.33911189  0.16398641  0.20047039
   0.83911189  0.16398641  0.20047039
   0.33911189  0.54692641  0.20047039
   0.83911189  0.54692641  0.20047039
   0.08911189  0.85545641  0.25598121
   0.58911189  0.85545641  0.25598121
   0.08916412  0.35545185  0.28922624
   0.58916412  0.35545184  0.28922628
   0.33911047  0.04676665  0.34577941
   0.83911059  0.04676643  0.34577941
   0.33911023  0.66412246  0.34577599
   0.83911032  0.66412264  0.34577599
   0.08912450  0.35556269  0.39950900
   0.58912457  0.35556270  0.39950895
   0.08910879  0.85547478  0.43558977
   0.58910878  0.85547473  0.43558969
   0.33911149  0.16515386  0.49351404
   0.83911144  0.16515384  0.49351405
   0.33914427  0.54576227  0.49349841
   0.83914419  0.54576224  0.49349841
   0.08916237  0.85547859  0.54593089
   0.58916239  0.85547866  0.54593088
   0.33911189  0.35545641  0.05551082
   0.83911189  0.35545641  0.05551082
   0.08911189  0.85545641  0.05551082
   0.58911189  0.85545641  0.05551082
   0.08911189  0.35545641  0.20047039
   0.58911189  0.35545641  0.20047039
   0.33911189  0.85545641  0.20047039
   0.83911189  0.85545641  0.20047039
   0.33912165  0.35543555  0.34459549
   0.83912105  0.35543558  0.34459551
   0.08908965  0.85543787  0.34604059
   0.58909025  0.85543788  0.34604061
   0.08913193  0.35546000  0.48787727
   0.58913193  0.35546000  0.48787731
   0.33913015  0.85546430  0.49215275
   0.83913110  0.85546430  0.49215275
Direct configuration=    17
   0.08911189  0.35545641  0.00000000
   0.58911189  0.35545641  0.00000000
   0.33911189  0.04692641  0.05551082
   0.83911189  0.04692641  0.05551082