       N       E                     dE             d eps       ncg     rms          rms(c)
DAV:   1     0.192200464948E+04    0.19220E+04   -0.12230E+05  7208   0.123E+03
DAV:   2    -0.112194351348E+03   -0.20342E+04   -0.19256E+04  9036   0.305E+02
DAV:   3    -0.325389091998E+03   -0.21319E+03   -0.21040E+03  8936   0.989E+01
DAV:   4    -0.329735557773E+03   -0.43465E+01   -0.43286E+01  8640   0.155E+01
DAV:   5    -0.329847938850E+03   -0.11238E+00   -0.11223E+00  8808   0.228E+00    0.555E+01
RMM:   6    -0.203317573243E+03    0.12653E+03   -0.27477E+02  7200   0.340E+01    0.233E+01
RMM:   7    -0.209668566922E+03   -0.63510E+01   -0.18055E+01  7202   0.816E+00    0.184E+01
RMM:   8    -0.220523436933E+03   -0.10855E+02   -0.54109E+00  7200   0.598E+00    0.136E+01
RMM:   9    -0.255383454318E+03   -0.34860E+02   -0.16189E+01  7200   0.856E+00    0.923E+00
RMM:  10    -0.277827440521E+03   -0.22444E+02   -0.19258E+01  7200   0.773E+00    0.716E+00
RMM:  11    -0.298546704240E+03   -0.20719E+02   -0.36295E+01  7200   0.905E+00    0.356E+00
RMM:  12    -0.299266759579E+03   -0.72006E+00   -0.19947E+00  7203   0.243E+00    0.156E+00
RMM:  13    -0.299442332085E+03   -0.17557E+00   -0.22224E-01  7214   0.856E-01    0.705E-01
RMM:  14    -0.299553065145E+03   -0.11073E+00   -0.51496E-02  7206   0.419E-01    0.393E-01
RMM:  15    -0.299623508731E+03   -0.70444E-01   -0.15146E-02  7200   0.265E-01    0.184E-01
RMM:  16    -0.299656783569E+03   -0.33275E-01   -0.54553E-03  7200   0.153E-01    0.991E-02
RMM:  17    -0.299676912422E+03   -0.20129E-01   -0.36751E-03  7012   0.106E-01    0.595E-02
RMM:  18    -0.299685839679E+03   -0.89273E-02   -0.82010E-04  5565   0.443E-02    0.400E-02
RMM:  19    -0.299696684787E+03   -0.10845E-01   -0.83436E-04  5501   0.399E-02    0.249E-02
RMM:  20    -0.299701883082E+03   -0.51983E-02   -0.35301E-04  4945   0.215E-02    0.174E-02
RMM:  21    -0.299705344845E+03   -0.34618E-02   -0.26178E-04  4908   0.187E-02    0.105E-02
RMM:  22    -0.299705684746E+03   -0.33990E-03   -0.65499E-05  3868   0.990E-03    0.725E-03
RMM:  23    -0.299705883053E+03   -0.19831E-03   -0.38373E-05  3430   0.795E-03    0.403E-03
RMM:  24    -0.299705941710E+03   -0.58657E-04   -0.13960E-05  3016   0.622E-03
   1 F= -.30786384E+03 E0= -.30786384E+03  d E =-.307864E+03  mag=    -0.0006
       N       E                     dE             d eps       ncg     rms          rms(c)
DAV:   1    -0.300167053563E+03   -0.46117E+00   -0.12185E+01  7880   0.862E+00    0.730E-01
RMM:   2    -0.300194227496E+03   -0.27174E-01   -0.35818E-01  7107   0.123E+00    0.380E-01
RMM:   3    -0.300190961917E+03    0.32656E-02   -0.81195E-03  6898   0.175E-01    0.229E-01
RMM:   4    -0.300189505318E+03    0.14566E-02   -0.34538E-03  6895   0.114E-01    0.750E-02
RMM:   5    -0.300189451346E+03    0.53972E-04   -0.47159E-04  5254   0.393E-02
   2 F= -.30834608E+03 E0= -.30834608E+03  d E =-.482243E+00  mag=    -0.0003
       N       E                     dE             d eps       ncg     rms          rms(c)
DAV:   1    -0.300537010037E+03   -0.34750E+00   -0.75192E+01  7448   0.206E+01    0.182E+00
RMM:   2    -0.300687523265E+03   -0.15051E+00   -0.21559E+00  7148   0.300E+00    0.983E-01
RMM:   3    -0.300663642005E+03    0.23881E-01   -0.45752E-02  7065   0.430E-01    0.597E-01
RMM:   4    -0.300652314622E+03    0.11327E-01   -0.27547E-02  7092   0.311E-01    0.163E-01
RMM:   5    -0.300652041254E+03    0.27337E-03   -0.22322E-03  6660   0.868E-02    0.802E-02
RMM:   6    -0.300652123312E+03   -0.82058E-04   -0.40760E-04  5458   0.346E-02
   3 F= -.30880541E+03 E0= -.30880541E+03  d E =-.941566E+00  mag=    -0.0001
       N       E                     dE             d eps       ncg     rms          rms(c)
DAV:   1    -0.300654913806E+03   -0.28726E-02   -0.52184E-01  8200   0.169E+00    0.156E-01
RMM:   2    -0.300656003962E+03   -0.10902E-02   -0.14688E-02  6898   0.248E-01    0.907E-02
RMM:   3    -0.300655904301E+03    0.99661E-04   -0.31223E-04  5104   0.361E-02
   4 F= -.30880948E+03 E0= -.30880948E+03  d E =-.945639E+00  mag=    -0.0001
       N       E                     dE             d eps       ncg     rms          rms(c)
DAV:   1    -0.300781641042E+03   -0.12564E+00   -0.74365E+00  7608   0.653E+00    0.399E-01
RMM:   2    -0.300789176527E+03   -0.75355E-02   -0.13462E-01  7129   0.795E-01    0.259E-01
RMM:   3    -0.300787091078E+03    0.20854E-02   -0.30427E-03  6939   0.111E-01    0.177E-01
RMM:   4    -0.300785710841E+03    0.13802E-02   -0.47697E-03  6914   0.113E-01    0.397E-02
RMM:   5    -0.300785751690E+03   -0.40849E-04   -0.12984E-04  4758   0.198E-02
   5 F= -.30894152E+03 E0= -.30894152E+03  d E =-.132035E+00  mag=    -0.0000
       N       E                     dE             d eps       ncg     rms          rms(c)
DAV:   1    -0.300876391556E+03   -0.90681E-01   -0.45088E+01  7568   0.161E+01    0.101E+00
RMM:   2    -0.300924927234E+03   -0.48536E-01   -0.85461E-01  7146   0.200E+00    0.652E-01
RMM:   3    -0.300910901381E+03    0.14026E-01   -0.19331E-02  7134   0.280E-01    0.445E-01
RMM:   4    -0.300901563839E+03    0.93375E-02   -0.29978E-02  7106   0.281E-01    0.105E-01
RMM:   5    -0.300901725295E+03   -0.16146E-03   -0.11189E-03  6262   0.544E-02    0.638E-02
RMM:   6    -0.300902177763E+03   -0.45247E-03   -0.34157E-04  5292   0.328E-02    0.332E-02
RMM:   7    -0.300902628341E+03   -0.45058E-03   -0.17422E-04  4825   0.221E-02    0.165E-02
RMM:   8    -0.300903028570E+03   -0.40023E-03   -0.96106E-05  4565   0.144E-02    0.114E-02
RMM:   9    -0.300903500145E+03   -0.47157E-03   -0.11151E-04  4380   0.134E-02    0.571E-03
RMM:  10    -0.300903698953E+03   -0.19881E-03   -0.42255E-05  3651   0.850E-03    0.411E-03
RMM:  11    -0.300903816503E+03   -0.11755E-03   -0.19430E-05  3127   0.638E-03    0.261E-03
RMM:  12    -0.300903875091E+03   -0.58588E-04   -0.10356E-05  2701   0.535E-03
   6 F= -.30906489E+03 E0= -.30906489E+03  d E =-.255408E+00  mag=    -0.0000
       N       E                     dE             d eps       ncg     rms          rms(c)
DAV:   1    -0.300951880445E+03   -0.48064E-01   -0.17485E+01  7424   0.991E+00    0.762E-01
RMM:   2    -0.300987428425E+03   -0.35548E-01   -0.42573E-01  7087   0.130E+00    0.394E-01
RMM:   3    -0.300983968377E+03    0.34600E-02   -0.69441E-03  6911   0.172E-01    0.250E-01
RMM:   4    -0.300982863709E+03    0.11047E-02   -0.45783E-03  6892   0.127E-01    0.479E-02
RMM:   5    -0.300982852127E+03    0.11581E-04   -0.12218E-04  4595   0.224E-02
   7 F= -.30913941E+03 E0= -.30913941E+03  d E =-.745225E-01  mag=    -0.0000
       N       E                     dE             d eps       ncg     rms          rms(c)
DAV:   1    -0.300985457858E+03   -0.25941E-02   -0.52653E+00  7696   0.542E+00    0.415E-01
RMM:   2    -0.300996070576E+03   -0.10613E-01   -0.12714E-01  7040   0.712E-01    0.217E-01
RMM:   3    -0.300995041118E+03    0.10295E-02   -0.20406E-03  6602   0.936E-02    0.137E-01
RMM:   4    -0.300994732940E+03    0.30818E-03   -0.13208E-03  6446   0.693E-02    0.275E-02
RMM:   5    -0.300994731484E+03    0.14560E-05   -0.44080E-05  4478   0.140E-02
   8 F= -.30914884E+03 E0= -.30914884E+03  d E =-.839464E-01  mag=    -0.0000
       N       E                     dE             d eps       ncg     rms          rms(c)
DAV:   1    -0.301027796430E+03   -0.33063E-01   -0.58505E+00  7312   0.593E+00    0.474E-01
RMM:   2    -0.301039283598E+03   -0.11487E-01   -0.15628E-01  7084   0.830E-01    0.282E-01
RMM:   3    -0.301037720326E+03    0.15633E-02   -0.27250E-03  6838   0.112E-01    0.178E-01
RMM:   4    -0.301037104717E+03    0.61561E-03   -0.22534E-03  6840   0.938E-02    0.427E-02
RMM:   5    -0.301037087764E+03    0.16953E-04   -0.13961E-04  4664   0.218E-02
   9 F= -.30918735E+03 E0= -.30918735E+03  d E =-.385186E-01  mag=    -0.0000
       N       E                     dE             d eps       ncg     rms          rms(c)
DAV:   1    -0.301041126310E+03   -0.40216E-02   -0.13407E+00  8080   0.284E+00    0.230E-01
RMM:   2    -0.301043829090E+03   -0.27028E-02   -0.36362E-02  7028   0.399E-01    0.134E-01
RMM:   3    -0.301043470173E+03    0.35892E-03   -0.62774E-04  6050   0.543E-02    0.846E-02
RMM:   4    -0.301043345741E+03    0.12443E-03   -0.50620E-04  5988   0.455E-02    0.208E-02
RMM:   5    -0.301043347440E+03   -0.16992E-05   -0.34993E-05  4429   0.123E-02
  10 F= -.30919178E+03 E0= -.30919178E+03  d E =-.429448E-01  mag=    -0.0000
       N       E                     dE             d eps       ncg     rms          rms(c)
DAV:   1    -0.301049449703E+03   -0.61040E-02   -0.12939E+00  7616   0.261E+00    0.210E-01
RMM:   2    -0.301051644573E+03   -0.21949E-02   -0.29352E-02  7004   0.346E-01    0.972E-02
RMM:   3    -0.301051346474E+03    0.29810E-03   -0.50983E-04  5547   0.452E-02    0.625E-02
RMM:   4    -0.301051223476E+03    0.12300E-03   -0.49783E-04  5937   0.381E-02    0.151E-02
RMM:   5    -0.301051218555E+03    0.49213E-05   -0.23574E-05  4343   0.101E-02
  11 F= -.30919785E+03 E0= -.30919785E+03  d E =-.606983E-02  mag=    -0.0000
       N       E                     dE             d eps       ncg     rms          rms(c)
DAV:   1    -0.301052647458E+03   -0.14240E-02   -0.49958E-01  8296   0.162E+00    0.130E-01
RMM:   2    -0.301053467803E+03   -0.82035E-03   -0.11367E-02  6946   0.216E-01    0.612E-02
RMM:   3    -0.301053342288E+03    0.12552E-03   -0.19001E-04  4724   0.284E-02    0.398E-02
RMM:   4    -0.301053287281E+03    0.55007E-04   -0.22182E-04  4934   0.266E-02
  12 F= -.30919880E+03 E0= -.30919880E+03  d E =-.701948E-02  mag=    -0.0000
       N       E                     dE             d eps       ncg     rms          rms(c)
DAV:   1    -0.301059511768E+03   -0.61695E-02   -0.12311E+00  7376   0.244E+00    0.210E-01
RMM:   2    -0.301061799421E+03   -0.22877E-02   -0.28507E-02  6990   0.327E-01    0.109E-01
RMM:   3    -0.301061598946E+03    0.20048E-03   -0.53533E-04  5280   0.449E-02    0.654E-02
RMM:   4    -0.301061564183E+03    0.34763E-04   -0.29168E-04  4993   0.323E-02
  13 F= -.30920405E+03 E0= -.30920405E+03  d E =-.524924E-02  mag=    -0.0000
       N       E                     dE             d eps       ncg     rms          rms(c)
DAV:   1    -0.301064022614E+03   -0.24237E-02   -0.33066E+00  7232   0.400E+00    0.350E-01
RMM:   2    -0.301070241744E+03   -0.62191E-02   -0.77482E-02  7062   0.539E-01    0.182E-01
RMM:   3    -0.301069693460E+03    0.54828E-03   -0.15080E-03  6337   0.742E-02    0.108E-01
RMM:   4    -0.301069571470E+03    0.12199E-03   -0.74331E-04  6052   0.496E-02    0.324E-02
RMM:   5    -0.301069584235E+03   -0.12766E-04   -0.63806E-05  4556   0.158E-02
  14 F= -.30920710E+03 E0= -.30920710E+03  d E =-.830433E-02  mag=    -0.0000
       N       E                     dE             d eps       ncg     rms          rms(c)
DAV:   1    -0.301074726246E+03   -0.51548E-02   -0.12505E+00  7384   0.263E+00    0.206E-01
RMM:   2    -0.301077066429E+03   -0.23402E-02   -0.29117E-02  7008   0.352E-01    0.112E-01
RMM:   3    -0.301076851049E+03    0.21538E-03   -0.53349E-04  5457   0.475E-02    0.682E-02
RMM:   4    -0.301076807904E+03    0.43144E-04   -0.31554E-04  5282   0.352E-02
  15 F= -.30921121E+03 E0= -.30921121E+03  d E =-.410350E-02  mag=    -0.0000
       N       E                     dE             d eps       ncg     rms          rms(c)
DAV:   1    -0.301079037780E+03   -0.21867E-02   -0.17799E+00  7240   0.314E+00    0.247E-01
RMM:   2    -0.301082374245E+03   -0.33365E-02   -0.41326E-02  7030   0.419E-01    0.135E-01
RMM:   3    -0.301082067187E+03    0.30706E-03   -0.77355E-04  5918   0.569E-02    0.818E-02
RMM:   4    -0.301081999154E+03    0.68033E-04   -0.43946E-04  5702   0.410E-02
  16 F= -.30921267E+03 E0= -.30921267E+03  d E =-.556604E-02  mag=    -0.0000
       N       E                     dE             d eps       ncg     rms          rms(c)
DAV:   1    -0.301085337828E+03   -0.32706E-02   -0.70106E-01  7328   0.193E+00    0.157E-01
RMM:   2    -0.301086524078E+03   -0.11862E-02   -0.15323E-02  6939   0.259E-01    0.703E-02
RMM:   3    -0.301086433184E+03    0.90893E-04   -0.27949E-04  5070   0.351E-02
  17 F= -.30921488E+03 E0= -.30921488E+03  d E =-.221478E-02  mag=    -0.0000
       N       E                     dE             d eps       ncg     rms          rms(c)
DAV:   1    -0.301088241896E+03   -0.17178E-02   -0.97500E-01  7288   0.228E+00    0.189E-01
RMM:   2    -0.301089837064E+03   -0.15952E-02   -0.21327E-02  6963   0.307E-01    0.861E-02
RMM:   3    -0.301089693915E+03    0.14315E-03   -0.41338E-04  5342   0.419E-02    0.530E-02
RMM:   4    -0.301089644429E+03    0.49486E-04   -0.32849E-04  5464   0.350E-02
  18 F= -.30921547E+03 E0= -.30921547E+03  d E =-.279850E-02  mag=    -0.0000
       N       E                     dE             d eps       ncg     rms          rms(c)
DAV:   1    -0.301091969497E+03   -0.22756E-02   -0.45999E-01  7664   0.165E+00    0.121E-01
RMM:   2    -0.301092835731E+03   -0.86623E-03   -0.98482E-03  6890   0.217E-01    0.513E-02
RMM:   3    -0.301092809486E+03    0.26245E-04   -0.13697E-04  4626   0.272E-02
  19 F= -.30921709E+03 E0= -.30921709E+03  d E =-.162089E-02  mag=    -0.0000
       N       E                     dE             d eps       ncg     rms          rms(c)
DAV:   1    -0.301092927965E+03   -0.92234E-04   -0.41090E+00  7232   0.492E+00    0.351E-01
RMM:   2    -0.301100544988E+03   -0.76170E-02   -0.85729E-02  7068   0.639E-01    0.154E-01
RMM:   3    -0.301100179738E+03    0.36525E-03   -0.12760E-03  6520   0.784E-02    0.958E-02
RMM:   4    -0.301100136444E+03    0.43295E-04   -0.72290E-04  6284   0.551E-02
  20 F= -.30921979E+03 E0= -.30921979E+03  d E =-.431858E-02  mag=    -0.0000
       N       E                     dE             d eps       ncg     rms          rms(c)
DAV:   1    -0.301100918644E+03   -0.73891E-03   -0.75159E-01  7792   0.211E+00    0.153E-01
RMM:   2    -0.301102307801E+03   -0.13892E-02   -0.15983E-02  6944   0.276E-01    0.661E-02
RMM:   3    -0.301102259638E+03    0.48164E-04   -0.22432E-04  4833   0.342E-02
  21 F= -.30921993E+03 E0= -.30921993E+03  d E =-.446569E-02  mag=    -0.0000
       N       E                     dE             d eps       ncg     rms          rms(c)
DAV:   1    -0.301105253530E+03   -0.29457E-02   -0.10733E+00  7376   0.250E+00    0.182E-01
RMM:   2    -0.301107121894E+03   -0.18684E-02   -0.22024E-02  6976   0.321E-01    0.848E-02
RMM:   3    -0.301107044939E+03    0.76955E-04   -0.34527E-04  5176   0.415E-02
  22 F= -.30922228E+03 E0= -.30922228E+03  d E =-.234738E-02  mag=    -0.0000
       N       E                     dE             d eps       ncg     rms          rms(c)
DAV:   1    -0.301108307457E+03   -0.11856E-02   -0.10784E+00  7376   0.250E+00    0.187E-01
RMM:   2    -0.301110150383E+03   -0.18429E-02   -0.22059E-02  6982   0.321E-01    0.890E-02
RMM:   3    -0.301110069734E+03    0.80649E-04   -0.35902E-04  5205   0.423E-02
  23 F= -.30922286E+03 E0= -.30922286E+03  d E =-.292669E-02  mag=    -0.0000
       N       E                     dE             d eps       ncg     rms          rms(c)
DAV:   1    -0.301111177498E+03   -0.10271E-02   -0.31046E-01  7584   0.131E+00    0.108E-01
RMM:   2    -0.301111666476E+03   -0.48898E-03   -0.63001E-03  6824   0.168E-01    0.473E-02
RMM:   3    -0.301111649380E+03    0.17095E-04   -0.95208E-05  4469   0.222E-02
  24 F= -.30922356E+03 E0= -.30922356E+03  d E =-.700836E-03  mag=    -0.0000
       N       E                     dE             d eps       ncg     rms          rms(c)
DAV:   1    -0.301111955558E+03   -0.28908E-03   -0.37965E-02  8112   0.457E-01    0.390E-02
RMM:   2    -0.301112006877E+03   -0.51318E-04   -0.73253E-04  5770   0.578E-02    0.167E-02
RMM:   3    -0.301112007663E+03   -0.78586E-06   -0.14284E-05  3885   0.936E-03
  25 F= -.30922361E+03 E0= -.30922361E+03  d E =-.747485E-03  mag=    -0.0000
