vasp.5.4.1 08Jul2015 (build Apr 24 2014 00:09:29) complex standard with constrain (TS)    
 executed on IBM of Center for Computational Chemistry date 2017.12.17  19:54:03
 running on   24 total cores
 distrk:  each k-point on   24 cores,    1 groups
 distr:  one band on NCORES_PER_BAND=   6 cores,    4 groups


--------------------------------------------------------------------------------------------------------


 INCAR:
 POTCAR:    PAW_PBE O 08Apr2002                   
 POTCAR:    PAW_PBE Ge 05Jan2001                  
 POTCAR:    PAW_PBE O 08Apr2002                   
   VRHFIN =O: s2p4                                                              
   LEXCH  = PE                                                                  
   EATOM  =   432.3788 eV,   31.7789 Ry                                         
                                                                                
   TITEL  = PAW_PBE O 08Apr2002                                                 
   LULTRA =        F    use ultrasoft PP ?                                      
   IUNSCR =        1    unscreen: 0-lin 1-nonlin 2-no                           
   RPACOR =    1.200    partial core radius                                     
   POMASS =   16.000; ZVAL   =    6.000    mass and valenz                      
   RCORE  =    1.520    outmost cutoff radius                                   
   RWIGS  =    1.550; RWIGS  =    0.820    wigner-seitz radius (au A)           
   ENMAX  =  400.000; ENMIN  =  300.000 eV                                      
   ICORE  =        2    local potential                                         
   LCOR   =        T    correct aug charges                                     
   LPAW   =        T    paw PP                                                  
   EAUG   =  605.392                                                            
   DEXC   =    0.000                                                            
   RMAX   =    1.553    core radius for proj-oper                               
   RAUG   =    1.300    factor for augmentation sphere                          
   RDEP   =    1.550    radius for radial grids                                 
   RDEPT  =    1.329    core radius for aug-charge                              
                                                                                
   Atomic configuration                                                         
    4 entries                                                                   
     n  l   j            E        occ.                                          
     1  0  0.50      -514.6923   2.0000                                         
     2  0  0.50       -23.9615   2.0000                                         
     2  1  0.50        -9.0305   4.0000                                         
     3  2  1.50        -9.5241   0.0000                                         
   Description                                                                  
     l       E           TYP  RCUT    TYP  RCUT                                 
     0    -23.9615318     23  1.200                                             
     0     -9.5240782     23  1.200                                             
     1     -9.0304911     23  1.520                                             
     1      8.1634956     23  1.520                                             
     2     -9.5240782      7  1.500                                             
  local pseudopotential read in
  partial core-charges read in
  partial kinetic energy density read in
  kinetic energy density of atom read in
  atomic valenz-charges read in
  non local Contribution for L=           0  read in
    real space projection operators read in
  non local Contribution for L=           0  read in
    real space projection operators read in
  non local Contribution for L=           1  read in
    real space projection operators read in
  non local Contribution for L=           1  read in
    real space projection operators read in
    PAW grid and wavefunctions read in
 
   number of l-projection  operators is LMAX  =           4
   number of lm-projection operators is LMMAX =           8
 
 POTCAR:    PAW_PBE Ge 05Jan2001                  
   VRHFIN =Ge: s2p2                                                             
   LEXCH  = PE                                                                  
   EATOM  =   104.9960 eV,    7.7170 Ry                                         
                                                                                
   TITEL  = PAW_PBE Ge 05Jan2001                                                
   LULTRA =        F    use ultrasoft PP ?                                      
   IUNSCR =        1    unscreen: 0-lin 1-nonlin 2-no                           
   RPACOR =    2.170    partial core radius                                     
   POMASS =   72.610; ZVAL   =    4.000    mass and valenz                      
   RCORE  =    2.300    outmost cutoff radius                                   
   RWIGS  =    2.300; RWIGS  =    1.217    wigner-seitz radius (au A)           
   ENMAX  =  173.807; ENMIN  =  130.355 eV                                      
   ICORE  =        3    local potential                                         
   LCOR   =        T    correct aug charges                                     
   LPAW   =        T    paw PP                                                  
   EAUG   =  385.843                                                            
   DEXC   =    0.000                                                            
   RMAX   =    2.342    core radius for proj-oper                               
   RAUG   =    1.300    factor for augmentation sphere                          
   RDEP   =    2.318    radius for radial grids                                 
   RDEPT  =    2.103    core radius for aug-charge                              
                                                                                
   Atomic configuration                                                         
   10 entries                                                                   
     n  l   j            E        occ.                                          
     1  0  0.50    -10959.8463   2.0000                                         
     2  0  0.50     -1371.6056   2.0000                                         
     2  1  1.50     -1198.4791   6.0000                                         
     3  0  0.50      -168.4733   2.0000                                         
     3  1  1.50      -115.6019   6.0000                                         
     3  2  2.50       -29.3106  10.0000                                         
     4  0  0.50       -11.7309   2.0000                                         
     4  1  0.50        -3.8952   2.0000                                         
     4  2  1.50        -4.0817   0.0000                                         
     4  3  2.50        -4.0817   0.0000                                         
   Description                                                                  
     l       E           TYP  RCUT    TYP  RCUT                                 
     0    -11.7309493     23  2.300                                             
     0     -7.4578696     23  2.300                                             
     1     -3.8952261     23  2.300                                             
     1      6.1178114     23  2.300                                             
     2     -4.0817478     23  2.300                                             
     3     -1.3605826      7  2.300                                             
  local pseudopotential read in
  partial core-charges read in
  partial kinetic energy density read in
  atomic valenz-charges read in
  non local Contribution for L=           0  read in
    real space projection operators read in
  non local Contribution for L=           0  read in
    real space projection operators read in
  non local Contribution for L=           1  read in
    real space projection operators read in
  non local Contribution for L=           1  read in
    real space projection operators read in
  non local Contribution for L=           2  read in
    real space projection operators read in
    PAW grid and wavefunctions read in
 
   number of l-projection  operators is LMAX  =           5
   number of lm-projection operators is LMMAX =          13
 
 Optimization of the real space projectors (new method)

 maximal supplied QI-value         = 24.76
 optimisation between [QCUT,QGAM] = [ 11.39, 22.77] = [ 36.31,145.25] Ry 
 Optimized for a Real-space Cutoff    1.10 Angstroem

   l    n(q)    QCUT    max X(q) W(low)/X(q) W(high)/X(q)  e(spline) 
   0      7    11.387    20.381    0.22E-03    0.48E-03    0.18E-06
   0      7    11.387    15.268    0.22E-03    0.52E-03    0.19E-06
   1      7    11.387     5.964    0.22E-03    0.73E-03    0.24E-06
   1      7    11.387     5.382    0.19E-03    0.60E-03    0.21E-06
 Optimization of the real space projectors (new method)

 maximal supplied QI-value         = 16.25
 optimisation between [QCUT,QGAM] = [ 11.38, 22.75] = [ 36.24,144.96] Ry 
 Optimized for a Real-space Cutoff    1.31 Angstroem

   l    n(q)    QCUT    max X(q) W(low)/X(q) W(high)/X(q)  e(spline) 
   0      9    11.376    65.336    0.20E-03    0.13E-03    0.49E-07
   0      9    11.376    52.220    0.20E-03    0.13E-03    0.49E-07
   1      8    11.376    36.409    0.18E-03    0.14E-03    0.15E-06
   1      8    11.376    21.334    0.18E-03    0.13E-03    0.15E-06
   2      8    11.376     4.673    0.22E-03    0.16E-03    0.38E-07
  PAW_PBE O 08Apr2002                   :
 energy of atom  1       EATOM= -432.3788
 kinetic energy error for atom=    0.0224 (will be added to EATOM!!)
  PAW_PBE Ge 05Jan2001                  :
 energy of atom  2       EATOM= -104.9960
 kinetic energy error for atom=    0.0002 (will be added to EATOM!!)
 
 
 POSCAR: AutoCreatByScript                       
  positions in direct lattice
  No initial velocities read in
 exchange correlation table for  LEXCH =        8
   RHO(1)=    0.500       N(1)  =     2000
   RHO(2)=  100.500       N(2)  =     4000
 


--------------------------------------------------------------------------------------------------------


 ion  position               nearest neighbor table
   1  0.131  0.570  0.000-  35 1.91  36 1.91
   2  0.631  0.570  0.000-  35 1.91  36 1.91
   3  0.381  0.264  0.056-  33 1.91  34 1.91  35 1.93
   4  0.881  0.264  0.056-  33 1.91  34 1.91  36 1.93
   5  0.381  0.876  0.056-  33 1.91  34 1.91  35 1.93
   6  0.881  0.876  0.056-  33 1.91  34 1.91  36 1.93
   7  0.131  0.570  0.112-  35 1.91  36 1.91  39 1.93
   8  0.631  0.570  0.112-  35 1.91  36 1.91  40 1.93
   9  0.131  0.070  0.144-  37 1.91  38 1.91  33 1.93
  10  0.631  0.070  0.144-  37 1.91  38 1.91  34 1.93
  11  0.381  0.376  0.200-  39 1.91  40 1.91  37 1.93
  12  0.881  0.376  0.200-  39 1.91  40 1.91  38 1.93
  13  0.381  0.764  0.200-  39 1.91  40 1.91  37 1.93
  14  0.881  0.764  0.200-  39 1.91  40 1.91  38 1.93
  15  0.131  0.070  0.256-  37 1.91  38 1.91  41 1.93
  16  0.631  0.070  0.256-  37 1.91  38 1.91  42 1.93
  17  0.131  0.570  0.288-  43 1.91  44 1.91  39 1.93
  18  0.631  0.570  0.288-  43 1.91  44 1.91  40 1.93
  19  0.381  0.264  0.344-  41 1.91  42 1.91  43 1.93
  20  0.881  0.264  0.344-  41 1.91  42 1.91  44 1.93
  21  0.381  0.876  0.344-  41 1.91  42 1.91  43 1.93
  22  0.881  0.876  0.344-  41 1.91  42 1.91  44 1.93
  23  0.131  0.570  0.400-  43 1.91  44 1.91  47 1.93
  24  0.631  0.570  0.400-  43 1.91  44 1.91  48 1.93
  25  0.131  0.070  0.432-  45 1.91  46 1.91  41 1.93
  26  0.631  0.070  0.432-  45 1.91  46 1.91  42 1.93
  27  0.381  0.376  0.488-  47 1.91  48 1.91  45 1.93
  28  0.881  0.376  0.488-  47 1.91  48 1.91  46 1.93
  29  0.381  0.764  0.488-  47 1.91  48 1.91  45 1.93
  30  0.881  0.764  0.488-  47 1.91  48 1.91  46 1.93
  31  0.131  0.070  0.544-  45 1.91  46 1.91
  32  0.631  0.070  0.544-  45 1.91  46 1.91
  33  0.131  0.070  0.056-   3 1.91   4 1.91   5 1.91   6 1.91   9 1.93
  34  0.631  0.070  0.056-   3 1.91   4 1.91   5 1.91   6 1.91  10 1.93
  35  0.381  0.570  0.056-   7 1.91   8 1.91   1 1.91   2 1.91   5 1.93   3 1.93
  36  0.881  0.570  0.056-   7 1.91   8 1.91   1 1.91   2 1.91   6 1.93   4 1.93
  37  0.381  0.070  0.200-   9 1.91  10 1.91  15 1.91  16 1.91  11 1.93  13 1.93
  38  0.881  0.070  0.200-   9 1.91  10 1.91  15 1.91  16 1.91  12 1.93  14 1.93
  39  0.131  0.570  0.200-  13 1.91  14 1.91  11 1.91  12 1.91   7 1.93  17 1.93
  40  0.631  0.570  0.200-  13 1.91  14 1.91  11 1.91  12 1.91   8 1.93  18 1.93
  41  0.131  0.070  0.344-  19 1.91  20 1.91  21 1.91  22 1.91  15 1.93  25 1.93
  42  0.631  0.070  0.344-  19 1.91  20 1.91  21 1.91  22 1.91  16 1.93  26 1.93
  43  0.381  0.570  0.344-  17 1.91  18 1.91  23 1.91  24 1.91  21 1.93  19 1.93
  44  0.881  0.570  0.344-  17 1.91  18 1.91  23 1.91  24 1.91  22 1.93  20 1.93
  45  0.381  0.070  0.488-  31 1.91  32 1.91  25 1.91  26 1.91  27 1.93  29 1.93
  46  0.881  0.070  0.488-  31 1.91  32 1.91  25 1.91  26 1.91  28 1.93  30 1.93
  47  0.131  0.570  0.488-  29 1.91  30 1.91  27 1.91  28 1.91  23 1.93
  48  0.631  0.570  0.488-  29 1.91  30 1.91  27 1.91  28 1.91  24 1.93
 

IMPORTANT INFORMATION: All symmetrisations will be switched off!
NOSYMM: (Re-)initialisation of all symmetry stuff for point group C_1.

 
 
 KPOINTS: mesh auto                               

Automatic generation of k-mesh.
Space group operators:
 irot       det(A)        alpha          n_x          n_y          n_z        tau_x        tau_y        tau_z
    1     1.000000     0.000001     1.000000     0.000000     0.000000     0.000000     0.000000     0.000000
 
 Subroutine IBZKPT returns following result:
 ===========================================
 
 Found     10 irreducible k-points:
 
 Following reciprocal coordinates:
            Coordinates               Weight
  0.000000  0.000000  0.000000      1.000000
  0.250000  0.000000  0.000000      2.000000
  0.500000  0.000000  0.000000      1.000000
  0.000000  0.250000  0.000000      2.000000
  0.250000  0.250000  0.000000      2.000000
  0.500000  0.250000  0.000000      2.000000
 -0.250000  0.250000  0.000000      2.000000
  0.000000  0.500000  0.000000      1.000000
  0.250000  0.500000  0.000000      2.000000
  0.500000  0.500000  0.000000      1.000000
 
 Following cartesian coordinates:
            Coordinates               Weight
  0.000000  0.000000  0.000000      1.000000
  0.000000  0.000000  0.042774      2.000000
  0.000000  0.000000  0.085548      1.000000
  0.027974 -0.027974  0.000000      2.000000
  0.027974 -0.027974  0.042774      2.000000
  0.027974 -0.027974  0.085548      2.000000
  0.027974 -0.027974 -0.042774      2.000000
  0.055947 -0.055947  0.000000      1.000000
  0.055947 -0.055947  0.042774      2.000000
  0.055947 -0.055947  0.085548      1.000000
 


--------------------------------------------------------------------------------------------------------




 Dimension of arrays:
   k-points           NKPTS =     10   k-points in BZ     NKDIM =     10   number of bands    NBANDS=    180
   number of dos      NEDOS =    301   number of ions     NIONS =     48
   non local maximal  LDIM  =      5   non local SUM 2l+1 LMDIM =     13
   total plane-waves  NPLWV = 368640
   max r-space proj   IRMAX =   4335   max aug-charges    IRDMAX=  24934
   dimension x,y,z NGX =    48 NGY =   48 NGZ =  160
   dimension x,y,z NGXF=    96 NGYF=   96 NGZF=  320
   support grid    NGXF=    96 NGYF=   96 NGZF=  320
   ions per type =              32  16
 NGX,Y,Z   is equivalent  to a cutoff of  13.65, 12.63, 12.13 a.u.
 NGXF,Y,Z  is equivalent  to a cutoff of  27.31, 25.26, 24.26 a.u.


 I would recommend the setting:
   dimension x,y,z NGX =    43 NGY =   46 NGZ =  160
 SYSTEM =  GeO2_suf110_2x1x4_2fix                  
 POSCAR =  AutoCreatByScript                       

 Startparameter for this run:
   NWRITE =      2    write-flag & timer
   PREC   = accura    normal or accurate (medium, high low for compatibility)
   ISTART =      0    job   : 0-new  1-cont  2-samecut
   ICHARG =      2    charge: 1-file 2-atom 10-const
   ISPIN  =      2    spin polarized calculation?
   LNONCOLLINEAR =      F non collinear calculations
   LSORBIT =      F    spin-orbit coupling
   INIWAV =      1    electr: 0-lowe 1-rand  2-diag
   LASPH  =      F    aspherical Exc in radial PAW
   METAGGA=      F    non-selfconsistent MetaGGA calc.

 Electronic Relaxation 1
   ENCUT  =  500.0 eV  36.75 Ry    6.06 a.u.  10.66 11.52 39.98*2*pi/ulx,y,z
   ENINI  =  500.0     initial cutoff
   ENAUG  =  605.4 eV  augmentation charge cutoff
   NELM   =    300;   NELMIN=  3; NELMDL= -5     # of ELM steps 
   EDIFF  = 0.1E-03   stopping-criterion for ELM
   LREAL  =      T    real-space projection
   NLSPLINE    = F    spline interpolate recip. space projectors
   LCOMPAT=      F    compatible to vasp.4.4
   GGA_COMPAT  = T    GGA compatible to vasp.4.4-vasp.4.6
   LMAXPAW     = -100 max onsite density
   LMAXMIX     =    2 max onsite mixed and CHGCAR
   VOSKOWN=      0    Vosko Wilk Nusair interpolation
   ROPT   =   -0.00025  -0.00025
 Ionic relaxation
   EDIFFG = -.5E-01   stopping-criterion for IOM
   NSW    =   1000    number of steps for IOM
   NBLOCK =      1;   KBLOCK =   1000    inner block; outer block 
   IBRION =      2    ionic relax: 0-MD 1-quasi-New 2-CG
   NFREE  =      1    steps in history (QN), initial steepest desc. (CG)
   ISIF   =      2    stress and relaxation
   IWAVPR =     11    prediction:  0-non 1-charg 2-wave 3-comb
   ISYM   =      0    0-nonsym 1-usesym 2-fastsym
   LCORR  =      T    Harris-Foulkes like correction to forces

   POTIM  = 0.1000    time-step for ionic-motion
   TEIN   =    0.0    initial temperature
   TEBEG  =    0.0;   TEEND  =   0.0 temperature during run
   SMASS  =  -3.00    Nose mass-parameter (am)
   estimated Nose-frequenzy (Omega)   =  0.10E-29 period in steps =****** mass=  -0.781E-27a.u.
   SCALEE = 1.0000    scale energy and forces
   NPACO  =    256;   APACO  = 16.0  distance and # of slots for P.C.
   PSTRESS=    0.0 pullay stress

  Mass of Ions in am
   POMASS =  16.00 72.61
  Ionic Valenz
   ZVAL   =   6.00  4.00
  Atomic Wigner-Seitz radii
   RWIGS  =  -1.00 -1.00
  virtual crystal weights 
   VCA    =   1.00  1.00
   NELECT =     256.0000    total number of electrons
   NUPDOWN=      -1.0000    fix difference up-down

 DOS related values:
   EMIN   =  10.00;   EMAX   =-10.00  energy-range for DOS
   EFERMI =   0.00
   ISMEAR =     0;   SIGMA  =   0.05  broadening in eV -4-tet -1-fermi 0-gaus

 Electronic relaxation 2 (details)
   IALGO  =     68    algorithm
   LDIAG  =      T    sub-space diagonalisation (order eigenvalues)
   LSUBROT=      F    optimize rotation matrix (better conditioning)
   TURBO    =      0    0=normal 1=particle mesh
   IRESTART =      0    0=no restart 2=restart with 2 vectors
   NREBOOT  =      0    no. of reboots
   NMIN     =      0    reboot dimension
   EREF     =   0.00    reference energy to select bands
   IMIX   =      4    mixing-type and parameters
     AMIX     =   0.40;   BMIX     =  1.00
     AMIX_MAG =   1.60;   BMIX_MAG =  1.00
     AMIN     =   0.10
     WC   =   100.;   INIMIX=   1;  MIXPRE=   1;  MAXMIX= -45

 Intra band minimization:
   WEIMIN = 0.0010     energy-eigenvalue tresh-hold
   EBREAK =  0.14E-06  absolut break condition
   DEPER  =   0.30     relativ break condition  

   TIME   =   0.40     timestep for ELM

  volume/ion in A,a.u.               =      16.87       113.87
  Fermi-wavevector in a.u.,A,eV,Ry     =   1.115155  2.107338 16.919816  1.243571
  Thomas-Fermi vector in A             =   2.251757
 
 Write flags
   LWAVE  =      F    write WAVECAR
   LCHARG =      F    write CHGCAR
   LVTOT  =      F    write LOCPOT, total local potential
   LVHAR  =      F    write LOCPOT, Hartree potential only
   LELF   =      F    write electronic localiz. function (ELF)
   LORBIT =      0    0 simple, 1 ext, 2 COOP (PROOUT)


 Dipole corrections
   LMONO  =      F    monopole corrections only (constant potential shift)
   LDIPOL =      F    correct potential (dipole corrections)
   IDIPOL =      0    1-x, 2-y, 3-z, 4-all directions 
   EPSILON=  1.0000000 bulk dielectric constant

 Exchange correlation treatment:
   GGA     =    --    GGA type
   LEXCH   =     8    internal setting for exchange type
   VOSKOWN=      0    Vosko Wilk Nusair interpolation
   LHFCALC =     F    Hartree Fock is set to
   LHFONE  =     F    Hartree Fock one center treatment
   AEXX    =    0.0000 exact exchange contribution

 Linear response parameters
   LEPSILON=     F    determine dielectric tensor
   LRPA    =     F    only Hartree local field effects (RPA)
   LNABLA  =     F    use nabla operator in PAW spheres
   LVEL    =     F    velocity operator in full k-point grid
   LINTERFAST=   F  fast interpolation
   KINTER  =     0    interpolate to denser k-point grid
   CSHIFT  =0.1000    complex shift for real part using Kramers Kronig
   OMEGAMAX=  -1.0    maximum frequency
   DEG_THRESHOLD= 0.2000000E-02 threshold for treating states as degnerate
   RTIME   =    0.100 relaxation time in fs

 Orbital magnetization related:
   ORBITALMAG=     F  switch on orbital magnetization
   LCHIMAG   =     F  perturbation theory with respect to B field
   DQ        =  0.001000  dq finite difference perturbation B field



--------------------------------------------------------------------------------------------------------


 conjugate gradient relaxation of ions
   using selective dynamics as specified on POSCAR
 charge density and potential will be updated during run
 spin polarized calculation
 RMM-DIIS sequential band-by-band and
  variant of blocked Davidson during initial phase
 perform sub-space diagonalisation
    before iterative eigenvector-optimisation
 modified Broyden-mixing scheme, WC =      100.0
 initial mixing is a Kerker type mixing with AMIX =  0.4000 and BMIX =      1.0000
 Hartree-type preconditioning will be used
 using additional bands           52
 real space projection scheme for non local part
 use partial core corrections
 calculate Harris-corrections to forces 
   (improved forces if not selfconsistent)
 use gradient corrections 
 use of overlap-Matrix (Vanderbilt PP)
 Gauss-broadening in eV      SIGMA  =   0.05


--------------------------------------------------------------------------------------------------------


  energy-cutoff  :      500.00
  volume of cell :      809.95
      direct lattice vectors                 reciprocal lattice vectors
     0.000000000  0.000000000  5.844679380     0.000000000  0.000000000  0.171095784
     4.468476600 -4.468476600  0.000000000     0.111894958 -0.111894958  0.000000000
    15.506300460 15.506300460  0.000000000     0.032244958  0.032244958  0.000000000

  length of vectors
     5.844679380  6.319380211 21.929220413     0.171095784  0.158243367  0.045601256


 
 k-points in units of 2pi/SCALE and weight: mesh auto                               
   0.00000000  0.00000000  0.00000000       0.062
   0.00000000  0.00000000  0.04277395       0.125
   0.00000000  0.00000000  0.08554789       0.062
   0.02797374 -0.02797374  0.00000000       0.125
   0.02797374 -0.02797374  0.04277395       0.125
   0.02797374 -0.02797374  0.08554789       0.125
   0.02797374 -0.02797374 -0.04277395       0.125
   0.05594748 -0.05594748  0.00000000       0.062
   0.05594748 -0.05594748  0.04277395       0.125
   0.05594748 -0.05594748  0.08554789       0.062
 
 k-points in reciprocal lattice and weights: mesh auto                               
   0.00000000  0.00000000  0.00000000       0.062
   0.25000000  0.00000000  0.00000000       0.125
   0.50000000  0.00000000  0.00000000       0.062
   0.00000000  0.25000000  0.00000000       0.125
   0.25000000  0.25000000  0.00000000       0.125
   0.50000000  0.25000000  0.00000000       0.125
  -0.25000000  0.25000000  0.00000000       0.125
   0.00000000  0.50000000  0.00000000       0.062
   0.25000000  0.50000000  0.00000000       0.125
   0.50000000  0.50000000  0.00000000       0.062
 
 position of ions in fractional coordinates (direct lattice) 
   0.13081166  0.56969810  0.00000000
   0.63081166  0.56969810  0.00000000
   0.38081166  0.26355810  0.05586496
   0.88081166  0.26355810  0.05586496
   0.38081166  0.87583810  0.05586496
   0.88081166  0.87583810  0.05586496
   0.13081166  0.56969810  0.11172992
   0.63081166  0.56969810  0.11172992
   0.13081166  0.06969810  0.14408584
   0.63081166  0.06969810  0.14408584
   0.38081166  0.37583810  0.19995080
   0.88081166  0.37583810  0.19995080
   0.38081166  0.76355810  0.19995080
   0.88081166  0.76355810  0.19995080
   0.13081166  0.06969810  0.25581576
   0.63081166  0.06969810  0.25581576
   0.13081166  0.56969810  0.28817168
   0.63081166  0.56969810  0.28817168
   0.38081166  0.26355810  0.34403664
   0.88081166  0.26355810  0.34403664
   0.38081166  0.87583810  0.34403664
   0.88081166  0.87583810  0.34403664
   0.13081166  0.56969810  0.39990160
   0.63081166  0.56969810  0.39990160
   0.13081166  0.06969810  0.43225751
   0.63081166  0.06969810  0.43225751
   0.38081166  0.37583810  0.48812248
   0.88081166  0.37583810  0.48812248
   0.38081166  0.76355810  0.48812248
   0.88081166  0.76355810  0.48812248
   0.13081166  0.06969810  0.54398744
   0.63081166  0.06969810  0.54398744
   0.13081166  0.06969810  0.05586496
   0.63081166  0.06969810  0.05586496
   0.38081166  0.56969810  0.05586496
   0.88081166  0.56969810  0.05586496
   0.38081166  0.06969810  0.19995080
   0.88081166  0.06969810  0.19995080
   0.13081166  0.56969810  0.19995080
   0.63081166  0.56969810  0.19995080
   0.13081166  0.06969810  0.34403664
   0.63081166  0.06969810  0.34403664
   0.38081166  0.56969810  0.34403664
   0.88081166  0.56969810  0.34403664
   0.38081166  0.06969810  0.48812248
   0.88081166  0.06969810  0.48812248
   0.13081166  0.56969810  0.48812248
   0.63081166  0.56969810  0.48812248
 
 position of ions in cartesian coordinates  (Angst):
   2.54568261 -2.54568261  0.76455222
   2.54568261 -2.54568261  3.68689191
   2.04396206 -0.31144431  2.22572207
   2.04396206 -0.31144431  5.14806176
   4.77992091 -3.04740316  2.22572207
   4.77992091 -3.04740316  5.14806176
   4.27820036 -0.81316486  0.76455222
   4.27820036 -0.81316486  3.68689191
   2.54568261  1.92279399  0.76455222
   2.54568261  1.92279399  3.68689191
   4.77992091  1.42107344  2.22572207
   4.77992091  1.42107344  5.14806176
   6.51243866 -0.31144431  2.22572207
   6.51243866 -0.31144431  5.14806176
   4.27820036  3.65531174  0.76455222
   4.27820036  3.65531174  3.68689191
   7.01415921  1.92279399  0.76455222
   7.01415921  1.92279399  3.68689191
   6.51243866  4.15703229  2.22572207
   6.51243866  4.15703229  5.14806176
   9.24839751  1.42107344  2.22572207
   9.24839751  1.42107344  5.14806176
   8.74667696  3.65531174  0.76455222
   8.74667696  3.65531174  3.68689191
   7.01415921  6.39127059  0.76455222
   7.01415921  6.39127059  3.68689191
   9.24839751  5.88955004  2.22572207
   9.24839751  5.88955004  5.14806176
  10.98091526  4.15703229  2.22572207
  10.98091526  4.15703229  5.14806176
   8.74667696  8.12378834  0.76455222
   8.74667696  8.12378834  3.68689191
   1.17770318  0.55481457  0.76455222
   1.17770318  0.55481457  3.68689191
   3.41194148 -1.67942373  2.22572207
   3.41194148 -1.67942373  5.14806176
   3.41194148  2.78905287  2.22572207
   3.41194148  2.78905287  5.14806176
   5.64617978  0.55481457  0.76455222
   5.64617978  0.55481457  3.68689191
   5.64617978  5.02329117  0.76455222
   5.64617978  5.02329117  3.68689191
   7.88041808  2.78905287  2.22572207
   7.88041808  2.78905287  5.14806176
   7.88041808  7.25752947  2.22572207
   7.88041808  7.25752947  5.14806176
  10.11465638  5.02329117  0.76455222
  10.11465638  5.02329117  3.68689191
 


--------------------------------------------------------------------------------------------------------


 k-point  1 :   0.0000 0.0000 0.0000  plane waves:   20573
 k-point  2 :   0.2500 0.0000 0.0000  plane waves:   20577
 k-point  3 :   0.5000 0.0000 0.0000  plane waves:   20562
 k-point  4 :   0.0000 0.2500 0.0000  plane waves:   20575
 k-point  5 :   0.2500 0.2500 0.0000  plane waves:   20562
 k-point  6 :   0.5000 0.2500 0.0000  plane waves:   20574
 k-point  7 :  -0.2500 0.2500 0.0000  plane waves:   20562
 k-point  8 :   0.0000 0.5000 0.0000  plane waves:   20560
 k-point  9 :   0.2500 0.5000 0.0000  plane waves:   20536
 k-point 10 :   0.5000 0.5000 0.0000  plane waves:   20528

 maximum and minimum number of plane-waves per node :      3486     3386

 maximum number of plane-waves:     20577
 maximum index in each direction: 
   IXMAX=   10   IYMAX=   11   IZMAX=   39
   IXMIN=  -11   IYMIN=  -12   IZMIN=  -39

 NGX is ok and might be reduce to  44
 NGY is ok and might be reduce to  48
 NGZ is ok and might be reduce to 158

 real space projection operators:
  total allocation   :      11629.97 KBytes
  max/ min on nodes  :       1978.19       1899.91


 parallel 3D FFT for wavefunctions:
    minimum data exchange during FFTs selected (reduces bandwidth)
 parallel 3D FFT for charge:
    minimum data exchange during FFTs selected (reduces bandwidth)


 total amount of memory used by VASP on root node   107591. kBytes
========================================================================

   base      :      30000. kBytes
   nonlr-proj:       5947. kBytes
   fftplans  :       5963. kBytes
   grid      :      14807. kBytes
   one-center:        129. kBytes
   wavefun   :      50745. kBytes
 
     INWAV:  cpu time    0.0000: real time    0.0001
 Broyden mixing: mesh for mixing (old mesh)
   NGX = 21   NGY = 23   NGZ = 79
  (NGX  = 96   NGY  = 96   NGZ  =320)
  gives a total of  38157 points

 initial charge density was supplied:
 charge density of overlapping atoms calculated
 number of electron     256.0000000 magnetization      48.0000000
 keeping initial charge density in first step


--------------------------------------------------------------------------------------------------------


 Maximum index for non-local projection operator          694
 Maximum index for augmentation-charges         1136 (set IRDMAX)


--------------------------------------------------------------------------------------------------------


 First call to EWALD:  gamma=   0.190
 Maximum number of real-space cells 4x 4x 1
 Maximum number of reciprocal cells 2x 2x 6

 FEWALD executed in parallel
    FEWALD:  cpu time    0.0040: real time    0.0037


----------------------------------------- Iteration    1(   1)  ---------------------------------------


    POTLOK:  cpu time    0.2690: real time    0.2691
    SETDIJ:  cpu time    0.0240: real time    0.0242
     EDDAV:  cpu time   20.4219: real time   20.4284
       DOS:  cpu time    0.0030: real time    0.0026
    --------------------------------------------
      LOOP:  cpu time   20.7228: real time   20.7336

 eigenvalue-minimisations  :  7208
 total energy-change (2. order) : 0.1922005E+04  (-0.1223001E+05)
 number of electron     256.0000000 magnetization      48.0000000
 augmentation part      256.0000000 magnetization      48.0000000

 Free energy of the ion-electron system (eV)
  ---------------------------------------------------
  alpha Z        PSCENC =       475.87937441
  Ewald energy   TEWEN  =     41373.92450514
  -Hartree energ DENC   =    -56052.20269993
  -exchange      EXHF   =         0.00000000
  -V(xc)+E(xc)   XCENC  =       784.14999604
  PAW double counting   =     12493.99194930   -12319.30617402
  entropy T*S    EENTRO =        -0.01342047
  eigenvalues    EBANDS =      -349.75712879
  atomic energy  EATOM  =     15515.33824780
  Solvation  Ediel_sol  =         0.00000000
  ---------------------------------------------------
  free energy    TOTEN  =      1922.00464948 eV

  energy without entropy =     1922.01806995  energy(sigma->0) =     1922.01135972


--------------------------------------------------------------------------------------------------------




----------------------------------------- Iteration    1(   2)  ---------------------------------------


     EDDAV:  cpu time   23.7844: real time   23.7898
       DOS:  cpu time    0.0010: real time    0.0011
    --------------------------------------------
      LOOP:  cpu time   23.7864: real time   23.7932

 eigenvalue-minimisations  :  9036
 total energy-change (2. order) :-0.2034199E+04  (-0.1925629E+04)
 number of electron     256.0000000 magnetization      48.0000000
 augmentation part      256.0000000 magnetization      48.0000000

 Free energy of the ion-electron system (eV)
  ---------------------------------------------------
  alpha Z        PSCENC =       475.87937441
  Ewald energy   TEWEN  =     41373.92450514
  -Hartree energ DENC   =    -56052.20269993
  -exchange      EXHF   =         0.00000000
  -V(xc)+E(xc)   XCENC  =       784.14999604
  PAW double counting   =     12493.99194930   -12319.30617402
  entropy T*S    EENTRO =        -0.00000000
  eigenvalues    EBANDS =     -2383.96955009
  atomic energy  EATOM  =     15515.33824780
  Solvation  Ediel_sol  =         0.00000000
  ---------------------------------------------------
  free energy    TOTEN  =      -112.19435135 eV

  energy without entropy =     -112.19435135  energy(sigma->0) =     -112.19435135


--------------------------------------------------------------------------------------------------------




----------------------------------------- Iteration    1(   3)  ---------------------------------------


     EDDAV:  cpu time   23.5974: real time   23.6013
       DOS:  cpu time    0.0010: real time    0.0011
    --------------------------------------------
      LOOP:  cpu time   23.5994: real time   23.6055

 eigenvalue-minimisations  :  8936
 total energy-change (2. order) :-0.2131947E+03  (-0.2103974E+03)
 number of electron     256.0000000 magnetization      48.0000000
 augmentation part      256.0000000 magnetization      48.0000000

 Free energy of the ion-electron system (eV)
  ---------------------------------------------------
  alpha Z        PSCENC =       475.87937441
  Ewald energy   TEWEN  =     41373.92450514
  -Hartree energ DENC   =    -56052.20269993
  -exchange      EXHF   =         0.00000000
  -V(xc)+E(xc)   XCENC  =       784.14999604
  PAW double counting   =     12493.99194930   -12319.30617402
  entropy T*S    EENTRO =        -0.00000000
  eigenvalues    EBANDS =     -2597.16429074
  atomic energy  EATOM  =     15515.33824780
  Solvation  Ediel_sol  =         0.00000000
  ---------------------------------------------------
  free energy    TOTEN  =      -325.38909200 eV

  energy without entropy =     -325.38909200  energy(sigma->0) =     -325.38909200


--------------------------------------------------------------------------------------------------------




----------------------------------------- Iteration    1(   4)  ---------------------------------------


     EDDAV:  cpu time   22.9335: real time   22.9365
       DOS:  cpu time    0.0010: real time    0.0011
    --------------------------------------------
      LOOP:  cpu time   22.9345: real time   22.9400

 eigenvalue-minimisations  :  8640
 total energy-change (2. order) :-0.4346466E+01  (-0.4328573E+01)
 number of electron     256.0000000 magnetization      48.0000000
 augmentation part      256.0000000 magnetization      48.0000000

 Free energy of the ion-electron system (eV)
  ---------------------------------------------------
  alpha Z        PSCENC =       475.87937441
  Ewald energy   TEWEN  =     41373.92450514
  -Hartree energ DENC   =    -56052.20269993
  -exchange      EXHF   =         0.00000000
  -V(xc)+E(xc)   XCENC  =       784.14999604
  PAW double counting   =     12493.99194930   -12319.30617402
  entropy T*S    EENTRO =        -0.00000000
  eigenvalues    EBANDS =     -2601.51075652
  atomic energy  EATOM  =     15515.33824780
  Solvation  Ediel_sol  =         0.00000000
  ---------------------------------------------------
  free energy    TOTEN  =      -329.73555777 eV

  energy without entropy =     -329.73555777  energy(sigma->0) =     -329.73555777


--------------------------------------------------------------------------------------------------------




----------------------------------------- Iteration    1(   5)  ---------------------------------------


     EDDAV:  cpu time   23.2935: real time   23.2981
       DOS:  cpu time    0.0010: real time    0.0011
    CHARGE:  cpu time    0.6919: real time    0.6924
    MIXING:  cpu time    0.0050: real time    0.0050
    --------------------------------------------
      LOOP:  cpu time   23.9934: real time   23.9995

 eigenvalue-minimisations  :  8808
 total energy-change (2. order) :-0.1123811E+00  (-0.1122277E+00)
 number of electron     256.0000058 magnetization      42.1734774
 augmentation part       19.3250635 magnetization      42.8908407

 Broyden mixing:
  rms(total) = 0.55469E+01    rms(broyden)= 0.55451E+01
  rms(prec ) = 0.57798E+01
  weight for this iteration     100.00

 Free energy of the ion-electron system (eV)
  ---------------------------------------------------
  alpha Z        PSCENC =       475.87937441
  Ewald energy   TEWEN  =     41373.92450514
  -Hartree energ DENC   =    -56052.20269993
  -exchange      EXHF   =         0.00000000
  -V(xc)+E(xc)   XCENC  =       784.14999604
  PAW double counting   =     12493.99194930   -12319.30617402
  entropy T*S    EENTRO =        -0.00000000
  eigenvalues    EBANDS =     -2601.62313759
  atomic energy  EATOM  =     15515.33824780
  Solvation  Ediel_sol  =         0.00000000
  ---------------------------------------------------
  free energy    TOTEN  =      -329.84793885 eV

  energy without entropy =     -329.84793885  energy(sigma->0) =     -329.84793885


--------------------------------------------------------------------------------------------------------




----------------------------------------- Iteration    1(   6)  ---------------------------------------


    POTLOK:  cpu time    0.2660: real time    0.2655
    SETDIJ:  cpu time    0.0240: real time    0.0241
    EDDIAG:  cpu time    3.4945: real time    3.4965
  RMM-DIIS:  cpu time   11.7502: real time   11.7538
    ORTHCH:  cpu time    0.6089: real time    0.6088
       DOS:  cpu time    0.0030: real time    0.0034
    CHARGE:  cpu time    0.6929: real time    0.6934
    MIXING:  cpu time    0.0050: real time    0.0049
    --------------------------------------------
      LOOP:  cpu time   16.8474: real time   16.8536

 eigenvalue-minimisations  :  7200
 total energy-change (2. order) : 0.1265304E+03  (-0.2747686E+02)
 number of electron     256.0000047 magnetization      36.6240290
 augmentation part       14.1533798 magnetization      34.4669493

 Broyden mixing:
  rms(total) = 0.23253E+01    rms(broyden)= 0.23241E+01
  rms(prec ) = 0.23607E+01
  weight for this iteration     100.00

 eigenvalues of (default mixing * dielectric matrix)
  average eigenvalue GAMMA=   1.0402
  1.0402

 Free energy of the ion-electron system (eV)
  ---------------------------------------------------
  alpha Z        PSCENC =       475.87937441
  Ewald energy   TEWEN  =     41373.92450514
  -Hartree energ DENC   =    -56534.17375186
  -exchange      EXHF   =         0.00000000
  -V(xc)+E(xc)   XCENC  =       863.53367366
  PAW double counting   =     15665.99238088   -15503.03763451
  entropy T*S    EENTRO =        -0.00704231
  eigenvalues    EBANDS =     -2060.76732646
  atomic energy  EATOM  =     15515.33824780
  Solvation  Ediel_sol  =         0.00000000
  ---------------------------------------------------
  free energy    TOTEN  =      -203.31757324 eV

  energy without entropy =     -203.31053094  energy(sigma->0) =     -203.31405209


--------------------------------------------------------------------------------------------------------




----------------------------------------- Iteration    1(   7)  ---------------------------------------


    POTLOK:  cpu time    0.2640: real time    0.2638
    SETDIJ:  cpu time    0.0250: real time    0.0243
    EDDIAG:  cpu time    3.4905: real time    3.4928
  RMM-DIIS:  cpu time   11.7262: real time   11.7298
    ORTHCH:  cpu time    0.6099: real time    0.6098
       DOS:  cpu time    0.0020: real time    0.0023
    CHARGE:  cpu time    0.6949: real time    0.6958
    MIXING:  cpu time    0.0050: real time    0.0051
    --------------------------------------------
      LOOP:  cpu time   16.8194: real time   16.8266

 eigenvalue-minimisations  :  7202
 total energy-change (2. order) :-0.6350994E+01  (-0.1805526E+01)
 number of electron     256.0000045 magnetization      29.5459756
 augmentation part       12.9159285 magnetization      27.3272947

 Broyden mixing:
  rms(total) = 0.18436E+01    rms(broyden)= 0.18434E+01
  rms(prec ) = 0.18549E+01
  weight for this iteration     100.00

 eigenvalues of (default mixing * dielectric matrix)
  average eigenvalue GAMMA=   1.0488
  1.0488  1.0488

 Free energy of the ion-electron system (eV)
  ---------------------------------------------------
  alpha Z        PSCENC =       475.87937441
  Ewald energy   TEWEN  =     41373.92450514
  -Hartree energ DENC   =    -56662.24850225
  -exchange      EXHF   =         0.00000000
  -V(xc)+E(xc)   XCENC  =       866.12766350
  PAW double counting   =     17784.93243421   -17623.93940228
  entropy T*S    EENTRO =        -0.00652253
  eigenvalues    EBANDS =     -1939.67636491
  atomic energy  EATOM  =     15515.33824780
  Solvation  Ediel_sol  =         0.00000000
  ---------------------------------------------------
  free energy    TOTEN  =      -209.66856692 eV

  energy without entropy =     -209.66204439  energy(sigma->0) =     -209.66530566


--------------------------------------------------------------------------------------------------------




----------------------------------------- Iteration    1(   8)  ---------------------------------------


    POTLOK:  cpu time    0.2630: real time    0.2637
    SETDIJ:  cpu time    0.0240: real time    0.0241
    EDDIAG:  cpu time    3.4925: real time    3.4931
  RMM-DIIS:  cpu time   11.7562: real time   11.7583
    ORTHCH:  cpu time    0.6099: real time    0.6104
       DOS:  cpu time    0.0030: real time    0.0025
    CHARGE:  cpu time    0.6969: real time    0.6984
    MIXING:  cpu time    0.0050: real time    0.0050
    --------------------------------------------
      LOOP:  cpu time   16.8534: real time   16.8587

 eigenvalue-minimisations  :  7200
 total energy-change (2. order) :-0.1085487E+02  (-0.5410862E+00)
 number of electron     256.0000046 magnetization      19.0125026
 augmentation part       13.2064057 magnetization      17.0112646

 Broyden mixing:
  rms(total) = 0.13624E+01    rms(broyden)= 0.13624E+01
  rms(prec ) = 0.13663E+01
  weight for this iteration     100.00

 eigenvalues of (default mixing * dielectric matrix)
  average eigenvalue GAMMA=   1.4821
  2.6330  1.1171  0.6963

 Free energy of the ion-electron system (eV)
  ---------------------------------------------------
  alpha Z        PSCENC =       475.87937441
  Ewald energy   TEWEN  =     41373.92450514
  -Hartree energ DENC   =    -56655.58551082
  -exchange      EXHF   =         0.00000000
  -V(xc)+E(xc)   XCENC  =       858.83320775
  PAW double counting   =     19421.15384078   -19260.30871847
  entropy T*S    EENTRO =        -0.00675740
  eigenvalues    EBANDS =     -1949.75162612
  atomic energy  EATOM  =     15515.33824780
  Solvation  Ediel_sol  =         0.00000000
  ---------------------------------------------------
  free energy    TOTEN  =      -220.52343693 eV

  energy without entropy =     -220.51667953  energy(sigma->0) =     -220.52005823


--------------------------------------------------------------------------------------------------------




----------------------------------------- Iteration    1(   9)  ---------------------------------------


    POTLOK:  cpu time    0.2640: real time    0.2640
    SETDIJ:  cpu time    0.0240: real time    0.0242
    EDDIAG:  cpu time    3.4865: real time    3.4864
  RMM-DIIS:  cpu time   11.7712: real time   11.7741
    ORTHCH:  cpu time    0.6089: real time    0.6106
       DOS:  cpu time    0.0030: real time    0.0025
    CHARGE:  cpu time    0.6989: real time    0.6987
    MIXING:  cpu time    0.0050: real time    0.0053
    --------------------------------------------
      LOOP:  cpu time   16.8624: real time   16.8690

 eigenvalue-minimisations  :  7200
 total energy-change (2. order) :-0.3486002E+02  (-0.1618930E+01)
 number of electron     256.0000046 magnetization      14.2496197
 augmentation part       13.2758537 magnetization      12.7558267

 Broyden mixing:
  rms(total) = 0.92293E+00    rms(broyden)= 0.92284E+00
  rms(prec ) = 0.92789E+00
  weight for this iteration     100.00

 eigenvalues of (default mixing * dielectric matrix)
  average eigenvalue GAMMA=   1.3602
  2.8853  1.1455  0.7228  0.6872

 Free energy of the ion-electron system (eV)
  ---------------------------------------------------
  alpha Z        PSCENC =       475.87937441
  Ewald energy   TEWEN  =     41373.92450514
  -Hartree energ DENC   =    -56697.16703218
  -exchange      EXHF   =         0.00000000
  -V(xc)+E(xc)   XCENC  =       840.98113820
  PAW double counting   =     21351.73278935   -21191.99289218
  entropy T*S    EENTRO =        -0.00288525
  eigenvalues    EBANDS =     -1924.07669960
  atomic energy  EATOM  =     15515.33824780
  Solvation  Ediel_sol  =         0.00000000
  ---------------------------------------------------
  free energy    TOTEN  =      -255.38345432 eV

  energy without entropy =     -255.38056906  energy(sigma->0) =     -255.38201169


--------------------------------------------------------------------------------------------------------




----------------------------------------- Iteration    1(  10)  ---------------------------------------


    POTLOK:  cpu time    0.2640: real time    0.2635
    SETDIJ:  cpu time    0.0240: real time    0.0241
    EDDIAG:  cpu time    3.4875: real time    3.4888
  RMM-DIIS:  cpu time   11.7802: real time   11.7835
    ORTHCH:  cpu time    0.6079: real time    0.6087
       DOS:  cpu time    0.0030: real time    0.0026
    CHARGE:  cpu time    0.6989: real time    0.6990
    MIXING:  cpu time    0.0050: real time    0.0053
    --------------------------------------------
      LOOP:  cpu time   16.8724: real time   16.8788

 eigenvalue-minimisations  :  7200
 total energy-change (2. order) :-0.2244399E+02  (-0.1925781E+01)
 number of electron     256.0000045 magnetization       5.2691954
 augmentation part       12.8457008 magnetization       4.1493951

 Broyden mixing:
  rms(total) = 0.71570E+00    rms(broyden)= 0.71548E+00
  rms(prec ) = 0.72486E+00
  weight for this iteration     100.00

 eigenvalues of (default mixing * dielectric matrix)
  average eigenvalue GAMMA=   1.7186
  3.9235  2.2564  0.9427  0.8481  0.6223

 Free energy of the ion-electron system (eV)
  ---------------------------------------------------
  alpha Z        PSCENC =       475.87937441
  Ewald energy   TEWEN  =     41373.92450514
  -Hartree energ DENC   =    -56713.51524885
  -exchange      EXHF   =         0.00000000
  -V(xc)+E(xc)   XCENC  =       832.20292983
  PAW double counting   =     21247.96739108   -21088.53268360
  entropy T*S    EENTRO =        -0.00389870
  eigenvalues    EBANDS =     -1921.08805763
  atomic energy  EATOM  =     15515.33824780
  Solvation  Ediel_sol  =         0.00000000
  ---------------------------------------------------
  free energy    TOTEN  =      -277.82744052 eV

  energy without entropy =     -277.82354182  energy(sigma->0) =     -277.82549117


--------------------------------------------------------------------------------------------------------




----------------------------------------- Iteration    1(  11)  ---------------------------------------


    POTLOK:  cpu time    0.2630: real time    0.2634
    SETDIJ:  cpu time    0.0240: real time    0.0241
    EDDIAG:  cpu time    3.5445: real time    3.5452
  RMM-DIIS:  cpu time   11.7542: real time   11.7576
    ORTHCH:  cpu time    0.6089: real time    0.6088
       DOS:  cpu time    0.0020: real time    0.0026
    CHARGE:  cpu time    0.7009: real time    0.7001
    MIXING:  cpu time    0.0050: real time    0.0053
    --------------------------------------------
      LOOP:  cpu time   16.9024: real time   16.9099

 eigenvalue-minimisations  :  7200
 total energy-change (2. order) :-0.2071926E+02  (-0.3629461E+01)
 number of electron     256.0000045 magnetization       1.9281217
 augmentation part       12.7646042 magnetization       1.5421952

 Broyden mixing:
  rms(total) = 0.35581E+00    rms(broyden)= 0.35513E+00
  rms(prec ) = 0.37084E+00
  weight for this iteration     100.00

 eigenvalues of (default mixing * dielectric matrix)
  average eigenvalue GAMMA=   1.9237
  6.1305  2.3348  1.0412  0.7118  0.7118  0.6125

 Free energy of the ion-electron system (eV)
  ---------------------------------------------------
  alpha Z        PSCENC =       475.87937441
  Ewald energy   TEWEN  =     41373.92450514
  -Hartree energ DENC   =    -56674.62406349
  -exchange      EXHF   =         0.00000000
  -V(xc)+E(xc)   XCENC  =       820.78554648
  PAW double counting   =     20388.75816213   -20228.33559690
  entropy T*S    EENTRO =        -0.00300093
  eigenvalues    EBANDS =     -1970.26987888
  atomic energy  EATOM  =     15515.33824780
  Solvation  Ediel_sol  =         0.00000000
  ---------------------------------------------------
  free energy    TOTEN  =      -298.54670424 eV

  energy without entropy =     -298.54370331  energy(sigma->0) =     -298.54520378


--------------------------------------------------------------------------------------------------------




----------------------------------------- Iteration    1(  12)  ---------------------------------------


    POTLOK:  cpu time    0.2630: real time    0.2631
    SETDIJ:  cpu time    0.0240: real time    0.0241
    EDDIAG:  cpu time    3.5325: real time    3.5333
  RMM-DIIS:  cpu time   11.7262: real time   11.7301
    ORTHCH:  cpu time    0.6089: real time    0.6086
       DOS:  cpu time    0.0020: real time    0.0020
    CHARGE:  cpu time    0.6999: real time    0.7011
    MIXING:  cpu time    0.0060: real time    0.0054
    --------------------------------------------
      LOOP:  cpu time   16.8624: real time   16.8708

 eigenvalue-minimisations  :  7203
 total energy-change (2. order) :-0.7200553E+00  (-0.1994663E+00)
 number of electron     256.0000045 magnetization       0.6253678
 augmentation part       12.8776480 magnetization       0.5193687

 Broyden mixing:
  rms(total) = 0.15613E+00    rms(broyden)= 0.15581E+00
  rms(prec ) = 0.16711E+00
  weight for this iteration     100.00

 eigenvalues of (default mixing * dielectric matrix)
  average eigenvalue GAMMA=   2.0218
  7.4410  2.3985  1.2229  0.9271  0.9271  0.6501  0.5861

 Free energy of the ion-electron system (eV)
  ---------------------------------------------------
  alpha Z        PSCENC =       475.87937441
  Ewald energy   TEWEN  =     41373.92450514
  -Hartree energ DENC   =    -56648.31682411
  -exchange      EXHF   =         0.00000000
  -V(xc)+E(xc)   XCENC  =       818.12593095
  PAW double counting   =     20143.91443963   -19983.02717155
  entropy T*S    EENTRO =        -0.00000437
  eigenvalues    EBANDS =     -1995.10525748
  atomic energy  EATOM  =     15515.33824780
  Solvation  Ediel_sol  =         0.00000000
  ---------------------------------------------------
  free energy    TOTEN  =      -299.26675958 eV

  energy without entropy =     -299.26675521  energy(sigma->0) =     -299.26675740


--------------------------------------------------------------------------------------------------------




----------------------------------------- Iteration    1(  13)  ---------------------------------------


    POTLOK:  cpu time    0.2630: real time    0.2629
    SETDIJ:  cpu time    0.0250: real time    0.0243
    EDDIAG:  cpu time    3.5355: real time    3.5361
  RMM-DIIS:  cpu time   11.7602: real time   11.7644
    ORTHCH:  cpu time    0.6069: real time    0.6071
       DOS:  cpu time    0.0030: real time    0.0022
    CHARGE:  cpu time    0.6999: real time    0.7004
    MIXING:  cpu time    0.0060: real time    0.0056
    --------------------------------------------
      LOOP:  cpu time   16.8994: real time   16.9060

 eigenvalue-minimisations  :  7214
 total energy-change (2. order) :-0.1755725E+00  (-0.2222433E-01)
 number of electron     256.0000045 magnetization       0.2423022
 augmentation part       12.9311943 magnetization       0.1885837

 Broyden mixing:
  rms(total) = 0.70476E-01    rms(broyden)= 0.70404E-01
  rms(prec ) = 0.78158E-01
  weight for this iteration     100.00

 eigenvalues of (default mixing * dielectric matrix)
  average eigenvalue GAMMA=   1.9758
  8.0428  2.5641  1.2435  1.0496  0.8431  0.8431  0.5905  0.6294

 Free energy of the ion-electron system (eV)
  ---------------------------------------------------
  alpha Z        PSCENC =       475.87937441
  Ewald energy   TEWEN  =     41373.92450514
  -Hartree energ DENC   =    -56627.33535913
  -exchange      EXHF   =         0.00000000
  -V(xc)+E(xc)   XCENC  =       817.17046563
  PAW double counting   =     20082.29012079   -19921.22239463
  entropy T*S    EENTRO =        -0.00000075
  eigenvalues    EBANDS =     -2015.48729135
  atomic energy  EATOM  =     15515.33824780
  Solvation  Ediel_sol  =         0.00000000
  ---------------------------------------------------
  free energy    TOTEN  =      -299.44233208 eV

  energy without entropy =     -299.44233134  energy(sigma->0) =     -299.44233171


--------------------------------------------------------------------------------------------------------




----------------------------------------- Iteration    1(  14)  ---------------------------------------


    POTLOK:  cpu time    0.2630: real time    0.2629
    SETDIJ:  cpu time    0.0250: real time    0.0243
    EDDIAG:  cpu time    3.5385: real time    3.5390
  RMM-DIIS:  cpu time   11.7512: real time   11.7534
    ORTHCH:  cpu time    0.6079: real time    0.6079
       DOS:  cpu time    0.0020: real time    0.0021
    CHARGE:  cpu time    0.6989: real time    0.6989
    MIXING:  cpu time    0.0060: real time    0.0058
    --------------------------------------------
      LOOP:  cpu time   16.8924: real time   16.8976

 eigenvalue-minimisations  :  7206
 total energy-change (2. order) :-0.1107331E+00  (-0.5149637E-02)
 number of electron     256.0000045 magnetization       0.1234220
 augmentation part       12.9506384 magnetization       0.1103864

 Broyden mixing:
  rms(total) = 0.39266E-01    rms(broyden)= 0.39240E-01
  rms(prec ) = 0.45720E-01
  weight for this iteration     100.00

 eigenvalues of (default mixing * dielectric matrix)
  average eigenvalue GAMMA=   1.9381
  8.1795  2.5959  1.6783  1.1517  0.9608  0.9608  0.7129  0.6141  0.5892

 Free energy of the ion-electron system (eV)
  ---------------------------------------------------
  alpha Z        PSCENC =       475.87937441
  Ewald energy   TEWEN  =     41373.92450514
  -Hartree energ DENC   =    -56614.82343217
  -exchange      EXHF   =         0.00000000
  -V(xc)+E(xc)   XCENC  =       816.69131824
  PAW double counting   =     20018.16208174   -19857.00598956
  entropy T*S    EENTRO =        -0.00000010
  eigenvalues    EBANDS =     -2027.71917065
  atomic energy  EATOM  =     15515.33824780
  Solvation  Ediel_sol  =         0.00000000
  ---------------------------------------------------
  free energy    TOTEN  =      -299.55306515 eV

  energy without entropy =     -299.55306505  energy(sigma->0) =     -299.55306510


--------------------------------------------------------------------------------------------------------




----------------------------------------- Iteration    1(  15)  ---------------------------------------


    POTLOK:  cpu time    0.2630: real time    0.2632
    SETDIJ:  cpu time    0.0240: real time    0.0242
    EDDIAG:  cpu time    3.5385: real time    3.5386
  RMM-DIIS:  cpu time   11.7912: real time   11.7929
    ORTHCH:  cpu time    0.6089: real time    0.6089
       DOS:  cpu time    0.0020: real time    0.0019
    CHARGE:  cpu time    0.6979: real time    0.6987
    MIXING:  cpu time    0.0060: real time    0.0060
    --------------------------------------------
      LOOP:  cpu time   16.9324: real time   16.9382

 eigenvalue-minimisations  :  7200
 total energy-change (2. order) :-0.7044359E-01  (-0.1514574E-02)
 number of electron     256.0000045 magnetization       0.0820820
 augmentation part       12.9323051 magnetization       0.0778973

 Broyden mixing:
  rms(total) = 0.18429E-01    rms(broyden)= 0.18422E-01
  rms(prec ) = 0.23649E-01
  weight for this iteration     100.00

 eigenvalues of (default mixing * dielectric matrix)
  average eigenvalue GAMMA=   1.8934
  8.2184  2.5236  2.3248  1.1307  1.1307  0.8727  0.8727  0.5680  0.6718  0.6211

 Free energy of the ion-electron system (eV)
  ---------------------------------------------------
  alpha Z        PSCENC =       475.87937441
  Ewald energy   TEWEN  =     41373.92450514
  -Hartree energ DENC   =    -56606.55952976
  -exchange      EXHF   =         0.00000000
  -V(xc)+E(xc)   XCENC  =       816.61110712
  PAW double counting   =     20043.63997277   -19882.51380036
  entropy T*S    EENTRO =        -0.00000016
  eigenvalues    EBANDS =     -2035.94338568
  atomic energy  EATOM  =     15515.33824780
  Solvation  Ediel_sol  =         0.00000000
  ---------------------------------------------------
  free energy    TOTEN  =      -299.62350873 eV

  energy without entropy =     -299.62350857  energy(sigma->0) =     -299.62350865


--------------------------------------------------------------------------------------------------------




----------------------------------------- Iteration    1(  16)  ---------------------------------------


    POTLOK:  cpu time    0.2640: real time    0.2635
    SETDIJ:  cpu time    0.0240: real time    0.0242
    EDDIAG:  cpu time    3.5305: real time    3.5309
  RMM-DIIS:  cpu time   11.7862: real time   11.7891
    ORTHCH:  cpu time    0.6089: real time    0.6095
       DOS:  cpu time    0.0020: real time    0.0020
    CHARGE:  cpu time    0.6959: real time    0.6965
    MIXING:  cpu time    0.0060: real time    0.0062
    --------------------------------------------
      LOOP:  cpu time   16.9184: real time   16.9250

 eigenvalue-minimisations  :  7200
 total energy-change (2. order) :-0.3327484E-01  (-0.5455275E-03)
 number of electron     256.0000045 magnetization       0.0546310
 augmentation part       12.9234330 magnetization       0.0510700

 Broyden mixing:
  rms(total) = 0.99128E-02    rms(broyden)= 0.99095E-02
  rms(prec ) = 0.13858E-01
  weight for this iteration     100.00

 eigenvalues of (default mixing * dielectric matrix)
  average eigenvalue GAMMA=   1.8757
  8.2269  2.7029  2.6609  1.3907  1.0059  1.0059  0.8882  0.8882  0.5747  0.6718
  0.6165

 Free energy of the ion-electron system (eV)
  ---------------------------------------------------
  alpha Z        PSCENC =       475.87937441
  Ewald energy   TEWEN  =     41373.92450514
  -Hartree energ DENC   =    -56599.84290049
  -exchange      EXHF   =         0.00000000
  -V(xc)+E(xc)   XCENC  =       816.56737919
  PAW double counting   =     20070.25295495   -19909.14865928
  entropy T*S    EENTRO =        -0.00000020
  eigenvalues    EBANDS =     -2042.62768510
  atomic energy  EATOM  =     15515.33824780
  Solvation  Ediel_sol  =         0.00000000
  ---------------------------------------------------
  free energy    TOTEN  =      -299.65678357 eV

  energy without entropy =     -299.65678337  energy(sigma->0) =     -299.65678347


--------------------------------------------------------------------------------------------------------




----------------------------------------- Iteration    1(  17)  ---------------------------------------


    POTLOK:  cpu time    0.2640: real time    0.2643
    SETDIJ:  cpu time    0.0250: real time    0.0241
    EDDIAG:  cpu time    3.5295: real time    3.5306
  RMM-DIIS:  cpu time   11.4923: real time   11.4940
    ORTHCH:  cpu time    0.6089: real time    0.6090
       DOS:  cpu time    0.0020: real time    0.0019
    CHARGE:  cpu time    0.6969: real time    0.6965
    MIXING:  cpu time    0.0060: real time    0.0062
    --------------------------------------------
      LOOP:  cpu time   16.6265: real time   16.6297

 eigenvalue-minimisations  :  7012
 total energy-change (2. order) :-0.2012885E-01  (-0.3675113E-03)
 number of electron     256.0000045 magnetization       0.0421305
 augmentation part       12.9323870 magnetization       0.0410559

 Broyden mixing:
  rms(total) = 0.59481E-02    rms(broyden)= 0.59455E-02
  rms(prec ) = 0.83606E-02
  weight for this iteration     100.00

 eigenvalues of (default mixing * dielectric matrix)
  average eigenvalue GAMMA=   1.8314
  8.2283  3.0747  2.6007  1.6179  0.9771  0.9771  0.9296  0.9296  0.7735  0.5777
  0.6124  0.6787

 Free energy of the ion-electron system (eV)
  ---------------------------------------------------
  alpha Z        PSCENC =       475.87937441
  Ewald energy   TEWEN  =     41373.92450514
  -Hartree energ DENC   =    -56592.24471660
  -exchange      EXHF   =         0.00000000
  -V(xc)+E(xc)   XCENC  =       816.43722684
  PAW double counting   =     20072.82921804   -19911.70893450
  entropy T*S    EENTRO =        -0.00000014
  eigenvalues    EBANDS =     -2050.13183341
  atomic energy  EATOM  =     15515.33824780
  Solvation  Ediel_sol  =         0.00000000
  ---------------------------------------------------
  free energy    TOTEN  =      -299.67691242 eV

  energy without entropy =     -299.67691228  energy(sigma->0) =     -299.67691235


--------------------------------------------------------------------------------------------------------




----------------------------------------- Iteration    1(  18)  ---------------------------------------


    POTLOK:  cpu time    0.2630: real time    0.2629
    SETDIJ:  cpu time    0.0240: real time    0.0242
    EDDIAG:  cpu time    3.5415: real time    3.5431
  RMM-DIIS:  cpu time    9.4236: real time    9.4253
    ORTHCH:  cpu time    0.6089: real time    0.6096
       DOS:  cpu time    0.0020: real time    0.0018
    CHARGE:  cpu time    0.6959: real time    0.6954
    MIXING:  cpu time    0.0060: real time    0.0067
    --------------------------------------------
      LOOP:  cpu time   14.5648: real time   14.5724

 eigenvalue-minimisations  :  5565
 total energy-change (2. order) :-0.8927257E-02  (-0.8200967E-04)
 number of electron     256.0000045 magnetization       0.0283905
 augmentation part       12.9315719 magnetization       0.0274455

 Broyden mixing:
  rms(total) = 0.40033E-02    rms(broyden)= 0.40028E-02
  rms(prec ) = 0.59271E-02
  weight for this iteration     100.00

 eigenvalues of (default mixing * dielectric matrix)
  average eigenvalue GAMMA=   1.8364
  8.2307  3.4394  2.5894  1.9425  1.2983  1.0253  1.0253  0.8804  0.8804  0.7253
  0.5737  0.6503  0.6119

 Free energy of the ion-electron system (eV)
  ---------------------------------------------------
  alpha Z        PSCENC =       475.87937441
  Ewald energy   TEWEN  =     41373.92450514
  -Hartree energ DENC   =    -56589.12727979
  -exchange      EXHF   =         0.00000000
  -V(xc)+E(xc)   XCENC  =       816.41851201
  PAW double counting   =     20073.23729105   -19912.11760302
  entropy T*S    EENTRO =        -0.00000016
  eigenvalues    EBANDS =     -2053.23888712
  atomic energy  EATOM  =     15515.33824780
  Solvation  Ediel_sol  =         0.00000000
  ---------------------------------------------------
  free energy    TOTEN  =      -299.68583968 eV

  energy without entropy =     -299.68583952  energy(sigma->0) =     -299.68583960


--------------------------------------------------------------------------------------------------------




----------------------------------------- Iteration    1(  19)  ---------------------------------------


    POTLOK:  cpu time    0.2640: real time    0.2639
    SETDIJ:  cpu time    0.0240: real time    0.0242
    EDDIAG:  cpu time    3.5295: real time    3.5299
  RMM-DIIS:  cpu time    9.3056: real time    9.3073
    ORTHCH:  cpu time    0.6079: real time    0.6095
       DOS:  cpu time    0.0020: real time    0.0019
    CHARGE:  cpu time    0.6969: real time    0.6964
    MIXING:  cpu time    0.0060: real time    0.0066
    --------------------------------------------
      LOOP:  cpu time   14.4378: real time   14.4427

 eigenvalue-minimisations  :  5501
 total energy-change (2. order) :-0.1084511E-01  (-0.8343577E-04)
 number of electron     256.0000045 magnetization       0.0182200
 augmentation part       12.9294625 magnetization       0.0173859

 Broyden mixing:
  rms(total) = 0.24928E-02    rms(broyden)= 0.24923E-02
  rms(prec ) = 0.38221E-02
  weight for this iteration     100.00

 eigenvalues of (default mixing * dielectric matrix)
  average eigenvalue GAMMA=   1.8497
  8.2311  3.9182  2.5044  2.5044  1.4314  1.0907  1.0094  1.0094  0.8366  0.8366
  0.7038  0.5742  0.6327  0.6131

 Free energy of the ion-electron system (eV)
  ---------------------------------------------------
  alpha Z        PSCENC =       475.87937441
  Ewald energy   TEWEN  =     41373.92450514
  -Hartree energ DENC   =    -56585.75975587
  -exchange      EXHF   =         0.00000000
  -V(xc)+E(xc)   XCENC  =       816.40430860
  PAW double counting   =     20071.98031237   -19910.86250904
  entropy T*S    EENTRO =        -0.00000016
  eigenvalues    EBANDS =     -2056.60116802
  atomic energy  EATOM  =     15515.33824780
  Solvation  Ediel_sol  =         0.00000000
  ---------------------------------------------------
  free energy    TOTEN  =      -299.69668479 eV

  energy without entropy =     -299.69668462  energy(sigma->0) =     -299.69668471


--------------------------------------------------------------------------------------------------------




----------------------------------------- Iteration    1(  20)  ---------------------------------------


    POTLOK:  cpu time    0.2640: real time    0.2637
    SETDIJ:  cpu time    0.0240: real time    0.0242
    EDDIAG:  cpu time    3.5325: real time    3.5335
  RMM-DIIS:  cpu time    8.4407: real time    8.4481
    ORTHCH:  cpu time    0.6089: real time    0.6088
       DOS:  cpu time    0.0010: real time    0.0019
    CHARGE:  cpu time    0.6959: real time    0.6959
    MIXING:  cpu time    0.0070: real time    0.0069
    --------------------------------------------
      LOOP:  cpu time   13.5759: real time   13.5862

 eigenvalue-minimisations  :  4945
 total energy-change (2. order) :-0.5198295E-02  (-0.3530075E-04)
 number of electron     256.0000045 magnetization       0.0077924
 augmentation part       12.9301171 magnetization       0.0075951

 Broyden mixing:
  rms(total) = 0.17383E-02    rms(broyden)= 0.17380E-02
  rms(prec ) = 0.27011E-02
  weight for this iteration     100.00

 eigenvalues of (default mixing * dielectric matrix)
  average eigenvalue GAMMA=   1.8948
  8.2294  4.6071  2.8953  2.5196  1.7203  1.2837  1.0002  1.0002  0.9759  0.8402
  0.8402  0.6936  0.5753  0.6098  0.6308

 Free energy of the ion-electron system (eV)
  ---------------------------------------------------
  alpha Z        PSCENC =       475.87937441
  Ewald energy   TEWEN  =     41373.92450514
  -Hartree energ DENC   =    -56583.51027549
  -exchange      EXHF   =         0.00000000
  -V(xc)+E(xc)   XCENC  =       816.38395956
  PAW double counting   =     20070.02996585   -19908.91044129
  entropy T*S    EENTRO =        -0.00000016
  eigenvalues    EBANDS =     -2058.83721890
  atomic energy  EATOM  =     15515.33824780
  Solvation  Ediel_sol  =         0.00000000
  ---------------------------------------------------
  free energy    TOTEN  =      -299.70188308 eV

  energy without entropy =     -299.70188292  energy(sigma->0) =     -299.70188300


--------------------------------------------------------------------------------------------------------




----------------------------------------- Iteration    1(  21)  ---------------------------------------


    POTLOK:  cpu time    0.2630: real time    0.2628
    SETDIJ:  cpu time    0.0240: real time    0.0241
    EDDIAG:  cpu time    3.5025: real time    3.5043
  RMM-DIIS:  cpu time    8.3317: real time    8.3333
    ORTHCH:  cpu time    0.6079: real time    0.6086
       DOS:  cpu time    0.0020: real time    0.0018
    CHARGE:  cpu time    0.6989: real time    0.6985
    MIXING:  cpu time    0.0070: real time    0.0073
    --------------------------------------------
      LOOP:  cpu time   13.4370: real time   13.4436

 eigenvalue-minimisations  :  4908
 total energy-change (2. order) :-0.3461764E-02  (-0.2617815E-04)
 number of electron     256.0000045 magnetization       0.0042157
 augmentation part       12.9293132 magnetization       0.0040339

 Broyden mixing:
  rms(total) = 0.10475E-02    rms(broyden)= 0.10471E-02
  rms(prec ) = 0.15876E-02
  weight for this iteration     100.00

 eigenvalues of (default mixing * dielectric matrix)
  average eigenvalue GAMMA=   1.9154
  8.2290  5.5015  3.0322  2.5114  2.0424  1.3203  0.9964  0.9964  1.0432  0.8388
  0.8388  0.7932  0.6855  0.5750  0.6094  0.6324

 Free energy of the ion-electron system (eV)
  ---------------------------------------------------
  alpha Z        PSCENC =       475.87937441
  Ewald energy   TEWEN  =     41373.92450514
  -Hartree energ DENC   =    -56581.53824891
  -exchange      EXHF   =         0.00000000
  -V(xc)+E(xc)   XCENC  =       816.38131537
  PAW double counting   =     20070.14192338   -19909.02517305
  entropy T*S    EENTRO =        -0.00000017
  eigenvalues    EBANDS =     -2060.80728882
  atomic energy  EATOM  =     15515.33824780
  Solvation  Ediel_sol  =         0.00000000
  ---------------------------------------------------
  free energy    TOTEN  =      -299.70534485 eV

  energy without entropy =     -299.70534467  energy(sigma->0) =     -299.70534476


--------------------------------------------------------------------------------------------------------




----------------------------------------- Iteration    1(  22)  ---------------------------------------


    POTLOK:  cpu time    0.2630: real time    0.2627
    SETDIJ:  cpu time    0.0240: real time    0.0241
    EDDIAG:  cpu time    3.4935: real time    3.4938
  RMM-DIIS:  cpu time    7.4429: real time    7.4449
    ORTHCH:  cpu time    0.6079: real time    0.6086
       DOS:  cpu time    0.0020: real time    0.0018
    CHARGE:  cpu time    0.6989: real time    0.6995
    MIXING:  cpu time    0.0070: real time    0.0074
    --------------------------------------------
      LOOP:  cpu time   12.5391: real time   12.5461

 eigenvalue-minimisations  :  3868
 total energy-change (2. order) :-0.3399006E-03  (-0.6549897E-05)
 number of electron     256.0000045 magnetization       0.0008535
 augmentation part       12.9292211 magnetization       0.0006830

 Broyden mixing:
  rms(total) = 0.72539E-03    rms(broyden)= 0.72529E-03
  rms(prec ) = 0.10984E-02
  weight for this iteration     100.00

 eigenvalues of (default mixing * dielectric matrix)
  average eigenvalue GAMMA=   1.9757
  8.2301  6.5116  3.2290  2.6110  2.2690  1.6179  1.0256  1.0256  1.0768  1.0601
  0.8456  0.8456  0.7437  0.5750  0.6804  0.6096  0.6294

 Free energy of the ion-electron system (eV)
  ---------------------------------------------------
  alpha Z        PSCENC =       475.87937441
  Ewald energy   TEWEN  =     41373.92450514
  -Hartree energ DENC   =    -56580.86179088
  -exchange      EXHF   =         0.00000000
  -V(xc)+E(xc)   XCENC  =       816.38062991
  PAW double counting   =     20070.46408163   -19909.34798465
  entropy T*S    EENTRO =        -0.00000017
  eigenvalues    EBANDS =     -2061.48274794
  atomic energy  EATOM  =     15515.33824780
  Solvation  Ediel_sol  =         0.00000000
  ---------------------------------------------------
  free energy    TOTEN  =      -299.70568475 eV

  energy without entropy =     -299.70568458  energy(sigma->0) =     -299.70568466


--------------------------------------------------------------------------------------------------------




----------------------------------------- Iteration    1(  23)  ---------------------------------------


    POTLOK:  cpu time    0.2630: real time    0.2629
    SETDIJ:  cpu time    0.0240: real time    0.0242
    EDDIAG:  cpu time    3.4915: real time    3.4925
  RMM-DIIS:  cpu time    7.1409: real time    7.1431
    ORTHCH:  cpu time    0.6079: real time    0.6084
       DOS:  cpu time    0.0020: real time    0.0020
    CHARGE:  cpu time    0.6999: real time    0.6996
    MIXING:  cpu time    0.0080: real time    0.0078
    --------------------------------------------
      LOOP:  cpu time   12.2371: real time   12.2437

 eigenvalue-minimisations  :  3430
 total energy-change (2. order) :-0.1983071E-03  (-0.3837293E-05)
 number of electron     256.0000045 magnetization      -0.0002873
 augmentation part       12.9293305 magnetization      -0.0003196

 Broyden mixing:
  rms(total) = 0.40281E-03    rms(broyden)= 0.40272E-03
  rms(prec ) = 0.57593E-03
  weight for this iteration     100.00

 eigenvalues of (default mixing * dielectric matrix)
  average eigenvalue GAMMA=   1.9996
  8.2220  7.1274  3.5606  2.5433  2.5433  1.7666  1.3275  0.9968  0.9968  1.0555
  0.9342  0.8424  0.8424  0.7381  0.5751  0.6822  0.6097  0.6288

 Free energy of the ion-electron system (eV)
  ---------------------------------------------------
  alpha Z        PSCENC =       475.87937441
  Ewald energy   TEWEN  =     41373.92450514
  -Hartree energ DENC   =    -56580.26815185
  -exchange      EXHF   =         0.00000000
  -V(xc)+E(xc)   XCENC  =       816.37802479
  PAW double counting   =     20070.39876641   -19909.28203555
  entropy T*S    EENTRO =        -0.00000017
  eigenvalues    EBANDS =     -2062.07461403
  atomic energy  EATOM  =     15515.33824780
  Solvation  Ediel_sol  =         0.00000000
  ---------------------------------------------------
  free energy    TOTEN  =      -299.70588305 eV

  energy without entropy =     -299.70588289  energy(sigma->0) =     -299.70588297


--------------------------------------------------------------------------------------------------------




----------------------------------------- Iteration    1(  24)  ---------------------------------------


    POTLOK:  cpu time    0.2630: real time    0.2628
    SETDIJ:  cpu time    0.0240: real time    0.0243
    EDDIAG:  cpu time    3.4955: real time    3.4962
  RMM-DIIS:  cpu time    6.7340: real time    6.7368
    ORTHCH:  cpu time    0.6079: real time    0.6080
       DOS:  cpu time    0.0020: real time    0.0020
    --------------------------------------------
      LOOP:  cpu time   11.1263: real time   11.1334

 eigenvalue-minimisations  :  3016
 total energy-change (2. order) :-0.5865663E-04  (-0.1396010E-05)
 number of electron     256.0000045 magnetization      -0.0002873
 augmentation part       12.9293305 magnetization      -0.0003196

 Free energy of the ion-electron system (eV)
  ---------------------------------------------------
  alpha Z        PSCENC =       475.87937441
  Ewald energy   TEWEN  =     41373.92450514
  -Hartree energ DENC   =    -56580.04575258
  -exchange      EXHF   =         0.00000000
  -V(xc)+E(xc)   XCENC  =       816.37609220
  PAW double counting   =     20070.67698345   -19909.55957189
  entropy T*S    EENTRO =        -0.00000017
  eigenvalues    EBANDS =     -2062.29582006
  atomic energy  EATOM  =     15515.33824780
  Solvation  Ediel_sol  =         0.00000000
  ---------------------------------------------------
  free energy    TOTEN  =      -299.70594171 eV

  energy without entropy =     -299.70594154  energy(sigma->0) =     -299.70594163


--------------------------------------------------------------------------------------------------------




 average (electrostatic) potential at core
  the test charge radii are     0.7215  1.1631
  (the norm of the test charge is              1.0000)
       1 -73.1331       2 -73.1329       3 -76.1363       4 -76.1363       5 -76.1364
       6 -76.1364       7 -75.0787       8 -75.0788       9 -75.4912      10 -75.4912
      11 -75.2422      12 -75.2422      13 -75.2422      14 -75.2422      15 -75.2863
      16 -75.2863      17 -75.2864      18 -75.2864      19 -75.2422      20 -75.2422
      21 -75.2422      22 -75.2422      23 -75.4913      24 -75.4913      25 -75.0789
      26 -75.0789      27 -76.1365      28 -76.1365      29 -76.1365      30 -76.1365
      31 -73.1328      32 -73.1329      33 -37.9900      34 -37.9900      35 -36.2245
      36 -36.2245      37 -37.1695      38 -37.1695      39 -36.9913      40 -36.9913
      41 -36.9914      42 -36.9914      43 -37.1696      44 -37.1696      45 -36.2247
      46 -36.2247      47 -37.9902      48 -37.9901
 
 
 
 E-fermi :   0.0418     XC(G=0):  -7.1210     alpha+bet : -7.0535


 spin component 1

 k-point     1 :       0.0000    0.0000    0.0000
  band No.  band energies     occupation 
      1     -21.3979      1.00000
      2     -21.2084      1.00000
      3     -20.7653      1.00000
      4     -20.2447      1.00000
      5     -19.8336      1.00000
      6     -19.8190      1.00000
      7     -19.8183      1.00000
      8     -19.4718      1.00000
      9     -19.3222      1.00000
     10     -19.3157      1.00000
     11     -19.3151      1.00000
     12     -19.2213      1.00000
     13     -19.1883      1.00000
     14     -19.0736      1.00000
     15     -18.9390      1.00000
     16     -18.7002      1.00000
     17     -18.6520      1.00000
     18     -18.5991      1.00000
     19     -18.5241      1.00000
     20     -18.5239      1.00000
     21     -18.4979      1.00000
     22     -18.4826      1.00000
     23     -18.2106      1.00000
     24     -18.0750      1.00000
     25     -18.0744      1.00000
     26     -17.9728      1.00000
     27     -17.8851      1.00000
     28     -17.8129      1.00000
     29     -16.5756      1.00000
     30     -16.5616      1.00000
     31     -15.7700      1.00000
     32     -15.7690      1.00000
     33     -10.5609      1.00000
     34     -10.5486      1.00000
     35     -10.5443      1.00000
     36     -10.2731      1.00000
     37     -10.2415      1.00000
     38      -9.8646      1.00000
     39      -9.8300      1.00000
     40      -9.7070      1.00000
     41      -9.6506      1.00000
     42      -9.4584      1.00000
     43      -8.9623      1.00000
     44      -8.1836      1.00000
     45      -7.6119      1.00000
     46      -7.2925      1.00000
     47      -7.2441      1.00000
     48      -7.1987      1.00000
     49      -7.0706      1.00000
     50      -6.8032      1.00000
     51      -6.7435      1.00000
     52      -6.6656      1.00000
     53      -6.5714      1.00000
     54      -6.4511      1.00000
     55      -6.3909      1.00000
     56      -6.0267      1.00000
     57      -5.9555      1.00000
     58      -5.9502      1.00000
     59      -5.8715      1.00000
     60      -5.7374      1.00000
     61      -5.6955      1.00000
     62      -5.6591      1.00000
     63      -5.4858      1.00000
     64      -5.3778      1.00000
     65      -5.2548      1.00000
     66      -5.0804      1.00000
     67      -5.0107      1.00000
[...]
    149       7.8504      0.00000
    150       7.8504      0.00000
    151       7.8828      0.00000
    152       7.8828      0.00000
    153       7.9185      0.00000
    154       7.9185      0.00000
    155       7.9517      0.00000
    156       7.9517      0.00000
    157       8.1688      0.00000
    158       8.1688      0.00000
    159       8.2607      0.00000
    160       8.2607      0.00000
    161       8.4695      0.00000
    162       8.4695      0.00000
    163       8.5296      0.00000
    164       8.5296      0.00000
    165       8.6151      0.00000
    166       8.6151      0.00000
    167       8.7508      0.00000
    168       8.7508      0.00000
    169       8.8505      0.00000
    170       8.8505      0.00000
    171       8.8568      0.00000
    172       8.8568      0.00000
    173       9.0128      0.00000
    174       9.0128      0.00000
    175       9.0326      0.00000
    176       9.0326      0.00000
    177       9.4281      0.00000
    178       9.4281      0.00000
    179       9.4377      0.00000
    180       9.4377      0.00000


--------------------------------------------------------------------------------------------------------


 soft charge-density along one line, spin component           1
         0         1         2         3         4         5         6         7         8         9
 total charge-density along one line
 
 soft charge-density along one line, spin component           2
         0         1         2         3         4         5         6         7         8         9
 total charge-density along one line
 
 pseudopotential strength for first ion, spin component:           1
 12.638 -15.414  -0.048   0.000  -0.048   0.061  -0.000   0.061
-15.414  18.823   0.062  -0.000   0.062  -0.078   0.000  -0.078
 -0.048   0.062  -8.933  -0.000  -0.033  10.824   0.000   0.044
  0.000  -0.000  -0.000  -9.008   0.000   0.000  10.925  -0.000
 -0.048   0.062  -0.033   0.000  -8.933   0.044  -0.000  10.824
  0.061  -0.078  10.824   0.000   0.044 -12.983  -0.000  -0.060
 -0.000   0.000   0.000  10.925  -0.000  -0.000 -13.120   0.000
  0.061  -0.078   0.044  -0.000  10.824  -0.060   0.000 -12.983
 pseudopotential strength for first ion, spin component:           2
 12.638 -15.414  -0.048   0.000  -0.048   0.061  -0.000   0.061
-15.414  18.823   0.062  -0.000   0.062  -0.078   0.000  -0.078
 -0.048   0.062  -8.933  -0.000  -0.033  10.824   0.000   0.044
  0.000  -0.000  -0.000  -9.008   0.000   0.000  10.925  -0.000
 -0.048   0.062  -0.033   0.000  -8.933   0.044  -0.000  10.824
  0.061  -0.078  10.824   0.000   0.044 -12.983  -0.000  -0.060
 -0.000   0.000   0.000  10.925  -0.000  -0.000 -13.120   0.000
  0.061  -0.078   0.044  -0.000  10.824  -0.060   0.000 -12.983
 total augmentation occupancy for first ion, spin component:           1
  2.479   0.288   0.126  -0.000   0.126   0.051  -0.000   0.051
  0.288   0.075   0.156  -0.000   0.156   0.028  -0.000   0.028
  0.126   0.156   2.014  -0.000  -0.014   0.192  -0.000   0.032
 -0.000  -0.000  -0.000   1.966   0.000  -0.000   0.263  -0.000
  0.126   0.156  -0.014   0.000   2.014   0.032  -0.000   0.192
  0.051   0.028   0.192  -0.000   0.032   0.023  -0.000   0.008
 -0.000  -0.000  -0.000   0.263  -0.000  -0.000   0.041  -0.000
  0.051   0.028   0.032  -0.000   0.192   0.008  -0.000   0.023
 total augmentation occupancy for first ion, spin component:           2
  0.000   0.000   0.000   0.000   0.000   0.000   0.000   0.000
  0.000   0.000   0.000   0.000   0.000   0.000   0.000   0.000
  0.000   0.000  -0.000   0.000   0.000  -0.000  -0.000   0.000
  0.000   0.000   0.000   0.000  -0.000   0.000   0.000   0.000
  0.000   0.000   0.000  -0.000  -0.000   0.000  -0.000  -0.000
  0.000   0.000  -0.000   0.000   0.000  -0.000   0.000   0.000
  0.000   0.000  -0.000   0.000  -0.000   0.000  -0.000  -0.000
  0.000   0.000   0.000   0.000  -0.000   0.000  -0.000   0.000


------------------------ aborting loop because EDIFF is reached ----------------------------------------


    CHARGE:  cpu time    0.6739: real time    0.6744
    FORLOC:  cpu time    0.0300: real time    0.0300
    FORNL :  cpu time    4.7933: real time    4.7936
    STRESS:  cpu time   14.4398: real time   14.4425
    FORCOR:  cpu time    0.2810: real time    0.2806
    FORHAR:  cpu time    0.0520: real time    0.0521
    MIXING:  cpu time    0.0050: real time    0.0050
    OFIELD:  cpu time    0.0000: real time    0.0000

 ---------------------------------------------------------------------------------------------

         DFTD3 V3.0 Rev 1        
 Edisp (eV)   -8.11160

 E6    (eV) :    -5.0855
 E8    (eV) :    -3.0261
 % E8        : 37.31
    FORVDW:  cpu time    0.2700: real time    0.2703

  FORCE on cell =-STRESS in cart. coord.  units (eV):
  Direction    XX          YY          ZZ          XY          YZ          ZX
  --------------------------------------------------------------------------------------
  Alpha Z   475.87937   475.87937   475.87937
  Ewald   -4601.72786 -4601.81779 49469.75200-52928.28272     0.10028     0.05082
  Hartree  1323.72769  1323.94953 52807.19422-51272.98683     0.01386     0.04024
  E(xc)   -1196.46418 -1196.46279 -1199.70605    -0.76183    -0.00101    -0.00018
  Local    -550.70039  -550.89783************104185.95253    -0.10279    -0.09496
  n-local  -468.41831  -468.45617  -376.09343    -3.08356     0.01226    -0.00504
  augment   227.80459   227.81322   206.48842     0.57274    -0.00098     0.00070
  Kinetic  4803.83445  4803.96664  4505.20218    11.67629    -0.01114     0.01235
  Fock        0.00000     0.00000     0.00000     0.00000     0.00000     0.00000
  vdW        -7.62283    -7.62283    -8.31142     0.78093    -0.00001    -0.00000
  -------------------------------------------------------------------------------------
  Total       6.31253     6.35136   -15.20362    -6.13245     0.01047     0.00393
  in kB      12.48693    12.56374   -30.07455   -12.13071     0.02070     0.00778
  external pressure =       -1.67 kB  Pullay stress =        0.00 kB


 VOLUME and BASIS-vectors are now :
 -----------------------------------------------------------------------------
  energy-cutoff  :      500.00
  volume of cell :      809.95
      direct lattice vectors                 reciprocal lattice vectors
     0.000000000  0.000000000  5.844679380     0.000000000  0.000000000  0.171095784
     4.468476600 -4.468476600  0.000000000     0.111894958 -0.111894958  0.000000000
    15.506300460 15.506300460  0.000000000     0.032244958  0.032244958  0.000000000

  length of vectors
     5.844679380  6.319380211 21.929220413     0.171095784  0.158243367  0.045601256


 FORCES acting on ions
    electron-ion (+dipol)            ewald-force                    non-local-force                 convergence-correction
 -----------------------------------------------------------------------------------------------
   0.995E+03 0.995E+03 -.349E-04   -.101E+04 -.101E+04 0.390E-07   0.206E+02 0.206E+02 0.102E-03   0.147E-03 0.145E-03 0.103E-06
   0.995E+03 0.995E+03 -.350E-04   -.101E+04 -.101E+04 0.666E-07   0.206E+02 0.206E+02 0.102E-03   0.147E-03 0.145E-03 0.896E-07
   0.858E+03 0.829E+03 -.577E-04   -.851E+03 -.835E+03 -.825E-07   -.888E+01 0.622E+01 -.144E-02   -.637E-04 0.964E-04 0.111E-07
   0.858E+03 0.829E+03 -.577E-04   -.851E+03 -.835E+03 -.174E-06   -.888E+01 0.622E+01 -.144E-02   -.637E-04 0.964E-04 0.382E-07
   0.829E+03 0.858E+03 -.265E-04   -.835E+03 -.851E+03 -.194E-06   0.622E+01 -.888E+01 -.941E-03   0.100E-03 -.564E-04 0.601E-07
   0.829E+03 0.858E+03 -.265E-04   -.835E+03 -.851E+03 -.236E-06   0.622E+01 -.888E+01 -.940E-03   0.100E-03 -.564E-04 0.371E-07
   0.595E+03 0.595E+03 -.281E-04   -.592E+03 -.592E+03 0.116E-04   -.130E+01 -.131E+01 -.388E-02   -.503E-03 -.528E-03 -.275E-07
   0.595E+03 0.595E+03 -.288E-04   -.592E+03 -.592E+03 0.122E-04   -.130E+01 -.131E+01 -.388E-02   -.503E-03 -.528E-03 -.829E-08
   0.517E+03 0.517E+03 -.131E-03   -.521E+03 -.521E+03 -.882E-05   0.282E+01 0.282E+01 -.464E-03   -.591E-04 -.254E-04 0.148E-05
   0.517E+03 0.517E+03 -.131E-03   -.521E+03 -.521E+03 -.880E-05   0.282E+01 0.282E+01 -.464E-03   -.590E-04 -.254E-04 0.146E-05
   0.297E+03 0.256E+03 0.266E-03   -.301E+03 -.253E+03 -.223E-03   0.404E+01 -.354E+01 -.222E-03   -.205E-02 0.235E-03 -.259E-05
   0.297E+03 0.256E+03 0.272E-03   -.301E+03 -.253E+03 -.229E-03   0.404E+01 -.354E+01 -.222E-03   -.205E-02 0.235E-03 -.270E-05
   0.256E+03 0.297E+03 0.404E-03   -.253E+03 -.301E+03 -.370E-03   -.354E+01 0.404E+01 -.105E-02   0.276E-03 -.203E-02 -.144E-05
   0.256E+03 0.297E+03 0.404E-03   -.253E+03 -.301E+03 -.370E-03   -.354E+01 0.404E+01 -.105E-02   0.276E-03 -.203E-02 -.161E-05
   0.365E+02 0.365E+02 0.274E-02   -.309E+02 -.309E+02 -.134E-02   -.541E+01 -.539E+01 -.345E-02   0.190E-02 0.200E-02 -.492E-05
   0.365E+02 0.365E+02 0.274E-02   -.309E+02 -.309E+02 -.135E-02   -.541E+01 -.539E+01 -.345E-02   0.190E-02 0.200E-02 -.479E-05
   -.498E+02 -.498E+02 0.569E-02   0.451E+02 0.451E+02 -.122E-01   0.476E+01 0.479E+01 0.502E-02   -.217E-02 -.293E-02 0.661E-04
   -.498E+02 -.498E+02 0.568E-02   0.451E+02 0.451E+02 -.122E-01   0.476E+01 0.479E+01 0.503E-02   -.217E-02 -.293E-02 0.663E-04
   -.299E+03 -.277E+03 -.202E-02   0.301E+03 0.274E+03 0.446E-02   -.208E+01 0.298E+01 -.446E-02   -.834E-02 -.418E-02 0.246E-03
   -.299E+03 -.277E+03 -.208E-02   0.301E+03 0.274E+03 0.452E-02   -.208E+01 0.298E+01 -.446E-02   -.834E-02 -.418E-02 0.248E-03
   -.277E+03 -.299E+03 0.568E-02   0.274E+03 0.301E+03 -.703E-02   0.301E+01 -.209E+01 -.685E-03   -.418E-02 -.837E-02 0.398E-03
   -.277E+03 -.299E+03 0.561E-02   0.274E+03 0.301E+03 -.698E-02   0.301E+01 -.209E+01 -.675E-03   -.418E-02 -.837E-02 0.399E-03
   -.517E+03 -.517E+03 -.120E-01   0.516E+03 0.516E+03 0.223E-01   0.102E+01 0.104E+01 -.107E-01   0.450E-02 0.322E-02 -.207E-03
   -.517E+03 -.517E+03 -.120E-01   0.516E+03 0.516E+03 0.223E-01   0.102E+01 0.104E+01 -.107E-01   0.449E-02 0.321E-02 -.207E-03
   -.598E+03 -.598E+03 0.862E-03   0.599E+03 0.599E+03 -.480E-02   -.168E+01 -.165E+01 0.580E-02   0.996E-02 0.105E-01 -.984E-03
   -.598E+03 -.598E+03 0.870E-03   0.599E+03 0.599E+03 -.481E-02   -.168E+01 -.165E+01 0.580E-02   0.996E-02 0.105E-01 -.984E-03
   -.851E+03 -.839E+03 -.151E-01   0.849E+03 0.851E+03 0.284E-01   0.209E+01 -.125E+02 -.141E-01   -.110E-01 -.960E-02 0.380E-03
   -.851E+03 -.839E+03 -.150E-01   0.849E+03 0.851E+03 0.283E-01   0.209E+01 -.125E+02 -.141E-01   -.110E-01 -.960E-02 0.381E-03
   -.839E+03 -.851E+03 -.113E-02   0.851E+03 0.849E+03 -.263E-03   -.124E+02 0.209E+01 -.612E-03   -.105E-01 -.104E-01 0.488E-03
   -.839E+03 -.851E+03 -.109E-02   0.851E+03 0.849E+03 -.311E-03   -.124E+02 0.209E+01 -.608E-03   -.105E-01 -.104E-01 0.490E-03
   -.977E+03 -.977E+03 0.639E-02   0.999E+03 0.999E+03 -.106E-01   -.221E+02 -.221E+02 0.300E-02   -.180E-01 -.178E-01 -.745E-04
   -.977E+03 -.977E+03 0.639E-02   0.999E+03 0.999E+03 -.106E-01   -.221E+02 -.221E+02 0.299E-02   -.180E-01 -.178E-01 -.741E-04
   0.596E+03 0.596E+03 0.492E-04   -.592E+03 -.592E+03 -.192E-07   -.198E+01 -.198E+01 -.693E-03   0.779E-05 0.116E-04 -.365E-07
   0.596E+03 0.596E+03 0.492E-04   -.592E+03 -.592E+03 0.814E-08   -.198E+01 -.198E+01 -.693E-03   0.778E-05 0.116E-04 -.371E-07
   0.539E+03 0.539E+03 0.995E-04   -.543E+03 -.543E+03 -.417E-06   0.124E+01 0.125E+01 -.466E-03   -.161E-03 -.165E-03 -.970E-08
   0.539E+03 0.539E+03 0.996E-04   -.543E+03 -.543E+03 -.508E-06   0.124E+01 0.125E+01 -.466E-03   -.161E-03 -.165E-03 -.101E-07
   0.185E+03 0.185E+03 0.317E-03   -.184E+03 -.184E+03 0.107E-03   -.182E+00 -.179E+00 0.895E-04   0.517E-03 0.553E-03 -.665E-06
   0.185E+03 0.185E+03 0.315E-03   -.184E+03 -.184E+03 0.108E-03   -.182E+00 -.179E+00 0.898E-04   0.517E-03 0.553E-03 -.661E-06
   0.185E+03 0.185E+03 -.831E-03   -.185E+03 -.185E+03 0.843E-03   0.259E+00 0.260E+00 -.174E-03   -.595E-03 -.650E-03 0.149E-05
   0.185E+03 0.185E+03 -.837E-03   -.185E+03 -.185E+03 0.848E-03   0.259E+00 0.260E+00 -.174E-03   -.595E-03 -.650E-03 0.149E-05
   -.196E+03 -.196E+03 -.546E-03   0.197E+03 0.197E+03 0.656E-03   -.116E+01 -.116E+01 -.104E-02   0.104E-02 0.116E-02 -.514E-04
   -.196E+03 -.196E+03 -.544E-03   0.197E+03 0.197E+03 0.653E-03   -.116E+01 -.116E+01 -.104E-02   0.104E-02 0.116E-02 -.512E-04
   -.187E+03 -.188E+03 0.107E-01   0.187E+03 0.187E+03 -.975E-02   0.713E+00 0.715E+00 -.325E-02   0.415E-02 0.400E-02 0.131E-04
   -.187E+03 -.188E+03 0.107E-01   0.187E+03 0.187E+03 -.972E-02   0.713E+00 0.715E+00 -.325E-02   0.415E-02 0.400E-02 0.124E-04
   -.531E+03 -.531E+03 -.145E-01   0.534E+03 0.534E+03 0.123E-01   -.302E+01 -.302E+01 0.172E-02   -.296E-02 -.297E-02 0.477E-04
   -.531E+03 -.531E+03 -.143E-01   0.534E+03 0.534E+03 0.121E-01   -.302E+01 -.302E+01 0.170E-02   -.296E-02 -.297E-02 0.488E-04
   -.552E+03 -.552E+03 0.250E-01   0.550E+03 0.550E+03 -.224E-01   0.201E+01 0.200E+01 -.519E-02   -.962E-03 -.110E-02 -.458E-04
   -.552E+03 -.552E+03 0.250E-01   0.550E+03 0.550E+03 -.224E-01   0.201E+01 0.200E+01 -.519E-02   -.962E-03 -.110E-02 -.459E-04
 -----------------------------------------------------------------------------------------------
   0.301E+02 0.300E+02 0.240E-01   0.148E-11 0.568E-12 0.115E-13   -.300E+02 -.300E+02 -.742E-01   -.780E-01 -.778E-01 0.545E-03
 
 
 POSITION                                       TOTAL-FORCE (eV/Angst)
 -----------------------------------------------------------------------------------
      2.54568     -2.54568      0.76455         0.815421      0.814053      0.001103
      2.54568     -2.54568      3.68689         0.815421      0.814054      0.001103
      2.04396     -0.31144      2.22572        -1.851215      0.423838     -0.000465
      2.04396     -0.31144      5.14806        -1.851215      0.423838     -0.000465
      4.77992     -3.04740      2.22572         0.425216     -1.848741      0.000068
      4.77992     -3.04740      5.14806         0.425216     -1.848741      0.000068
      4.27820     -0.81316      0.76455         1.089177      1.086847     -0.002858
      4.27820     -0.81316      3.68689         1.089177      1.086847     -0.002858
      2.54568      1.92279      0.76455        -0.379728     -0.382901      0.000433
      2.54568      1.92279      3.68689        -0.379729     -0.382902      0.000433
      4.77992      1.42107      2.22572        -0.010810      0.131172      0.000854
      4.77992      1.42107      5.14806        -0.010810      0.131172      0.000854
      6.51244     -0.31144      2.22572         0.131162     -0.009615      0.000017
      6.51244     -0.31144      5.14806         0.131162     -0.009615      0.000017
      4.27820      3.65531      0.76455         0.204964      0.202238     -0.001029
      4.27820      3.65531      3.68689         0.204964      0.202237     -0.001030
      7.00267      1.91169      0.76450         0.027787      0.029047     -0.000375
      7.00267      1.91169      3.68684         0.027784      0.029046     -0.000373
      6.52193      4.14593      2.22548        -0.008218      0.000904     -0.000735
      6.52193      4.14593      5.14782        -0.008219      0.000905     -0.000732
      9.23618      1.43155      2.22559         0.002532     -0.008092     -0.000609
      9.23618      1.43155      5.14793         0.002532     -0.008092     -0.000604
      8.72523      3.63390      0.76413         0.018409      0.021803      0.000440
      8.72523      3.63390      3.68647         0.018409      0.021803      0.000439
      7.03806      6.41430      0.76411         0.020229      0.018523      0.001912
      7.03806      6.41430      3.68645         0.020236      0.018532      0.001913
      9.40178      5.96922      2.22510         0.010531     -0.004670      0.000627
      9.40178      5.96922      5.14744         0.010530     -0.004670      0.000621
     11.06146      4.30852      2.22543        -0.003400      0.009625     -0.000483
     11.06146      4.30852      5.14777        -0.003399      0.009626     -0.000484
      8.80105      8.17621      0.76413        -0.004421     -0.004060     -0.000286
      8.80105      8.17621      3.68647        -0.004423     -0.004065     -0.000286
      1.17770      0.55481      0.76455         1.966096      1.968339      0.000392
      1.17770      0.55481      3.68689         1.966096      1.968339      0.000392
      3.41194     -1.67942      2.22572        -2.262330     -2.258859      0.000669
      3.41194     -1.67942      5.14806        -2.262330     -2.258859      0.000669
      3.41194      2.78905      2.22572         0.428040      0.431622      0.001549
      3.41194      2.78905      5.14806         0.428040      0.431622      0.001548
      5.64618      0.55481      0.76455        -0.571479     -0.569236      0.000875
      5.64618      0.55481      3.68689        -0.571479     -0.569235      0.000875
      5.69058      5.06878      0.76438        -0.015711     -0.016765      0.000055
      5.69058      5.06878      3.68672        -0.015714     -0.016766      0.000053
      7.83895      2.74882      2.22555        -0.013387     -0.013676     -0.001223
      7.83895      2.74882      5.14789        -0.013385     -0.013676     -0.001222
      8.01777      7.39389      2.22522        -0.027187     -0.029216      0.000612
      8.01777      7.39389      5.14756        -0.027189     -0.029213      0.000602
     10.02456      4.93218      0.76423         0.008324      0.007817     -0.001539
     10.02456      4.93218      3.68656         0.008323      0.007818     -0.001539
 -----------------------------------------------------------------------------------
    total drift:                               -0.005695     -0.016162     -0.049701
  FORCES: max atom, RMS     0.040199    0.016102
  Number: max atom                17
  FORCE total and by dimension    0.111561    0.029216


--------------------------------------------------------------------------------------------------------



  FREE ENERGIE OF THE ION-ELECTRON SYSTEM (eV)
  ---------------------------------------------------
  free  energy   TOTEN  =      -309.22360849 eV

  energy  without entropy=     -309.22360849  energy(sigma->0) =     -309.22360849
 
 d Force = 0.4204229E-04[-0.222E-04, 0.106E-03]  d Energy = 0.4664903E-04-0.461E-05
 d Force = 0.8208817E+01[ 0.821E+01, 0.821E+01]  d Ewald  = 0.8208817E+01 0.269E-08


--------------------------------------------------------------------------------------------------------


    POTLOK:  cpu time    0.2930: real time    0.2935


--------------------------------------------------------------------------------------------------------




--------------------------------------------------------------------------------------------------------


  
 reached required accuracy - stopping structural energy minimisation
     LOOP+:  cpu time   70.0673: real time   70.1105
    4ORBIT:  cpu time    0.0000: real time    0.0000

 total amount of memory used by VASP on root node   107591. kBytes
========================================================================

   base      :      30000. kBytes
   nonlr-proj:       5947. kBytes
   fftplans  :       5963. kBytes
   grid      :      14807. kBytes
   one-center:        129. kBytes
   wavefun   :      50745. kBytes
 
  
  
 General timing and accounting informations for this job:
 ========================================================
  
                  Total CPU time used (sec):     2746.300
                            User time (sec):     2742.735
                          System time (sec):        3.564
                         Elapsed time (sec):     2763.130
  
                   Maximum memory used (kb):      186360.
                   Average memory used (kb):           0.
  
                          Minor page faults:       147377
                          Major page faults:            0
                 Voluntary context switches:         4606
