GeO2_suf110_2x1x4_2fix                  
           1
     0.000000    0.000000    5.844679
     4.468477   -4.468477    0.000000
    15.506300   15.506300    0.000000
   O    Ge
  32  16
Direct configuration=     1
   0.13081166  0.56969810  0.00000000
   0.63081166  0.56969810  0.00000000
   0.38081166  0.26355810  0.05586496
   0.88081166  0.26355810  0.05586496
   0.38081166  0.87583810  0.05586496
   0.88081166  0.87583810  0.05586496
   0.13081166  0.56969810  0.11172992
   0.63081166  0.56969810  0.11172992
   0.13081166  0.06969810  0.14408584
   0.63081166  0.06969810  0.14408584
   0.38081166  0.37583810  0.19995080
   0.88081166  0.37583810  0.19995080
   0.38081166  0.76355810  0.19995080
   0.88081166  0.76355810  0.19995080
   0.13081166  0.06969810  0.25581576
   0.63081166  0.06969810  0.25581576
   0.13081166  0.56969810  0.28817168
   0.63081166  0.56969810  0.28817168
   0.38081166  0.26355810  0.34403664
   0.88081166  0.26355810  0.34403664
   0.38081166  0.87583810  0.34403664
   0.88081166  0.87583810  0.34403664
   0.13081166  0.56969810  0.39990160
   0.63081166  0.56969810  0.39990160
   0.13081166  0.06969810  0.43225751
   0.63081166  0.06969810  0.43225751
   0.38081166  0.37583810  0.48812248
   0.88081166  0.37583810  0.48812248
   0.38081166  0.76355810  0.48812248
   0.88081166  0.76355810  0.48812248
   0.13081166  0.06969810  0.54398744
   0.63081166  0.06969810  0.54398744
   0.13081166  0.06969810  0.05586496
   0.63081166  0.06969810  0.05586496
   0.38081166  0.56969810  0.05586496
   0.88081166  0.56969810  0.05586496
   0.38081166  0.06969810  0.19995080
   0.88081166  0.06969810  0.19995080
   0.13081166  0.56969810  0.19995080
   0.63081166  0.56969810  0.19995080
   0.13081166  0.06969810  0.34403664
   0.63081166  0.06969810  0.34403664
   0.38081166  0.56969810  0.34403664
   0.88081166  0.56969810  0.34403664
   0.38081166  0.06969810  0.48812248
   0.88081166  0.06969810  0.48812248
   0.13081166  0.56969810  0.48812248
   0.63081166  0.56969810  0.48812248
Direct configuration=     2
   0.13081166  0.56969810  0.00000000
   0.63081166  0.56969810  0.00000000
   0.38081166  0.26355810  0.05586496
   0.88081166  0.26355810  0.05586496
   0.38081166  0.87583810  0.05586496
   0.88081166  0.87583810  0.05586496
   0.13081166  0.56969810  0.11172992
   0.63081166  0.56969810  0.11172992
   0.13081166  0.06969810  0.14408584
   0.63081166  0.06969810  0.14408584
   0.38081166  0.37583810  0.19995080
   0.88081166  0.37583810  0.19995080
   0.38081166  0.76355810  0.19995080
   0.88081166  0.76355810  0.19995080
   0.13081166  0.06969810  0.25581576
   0.63081166  0.06969810  0.25581576
   0.13080835  0.56970092  0.28820648
   0.63080835  0.56970092  0.28820649
   0.38081164  0.26388957  0.34401953
   0.88081157  0.26388957  0.34401953
   0.38081333  0.87550594  0.34401852
   0.88081326  0.87550593  0.34401852
   0.13081214  0.56969899  0.40011271
   0.63081213  0.56969899  0.40011269
   0.13080937  0.06970197  0.43158907
   0.63080937  0.06970197  0.43158920
   0.38081201  0.37830033  0.48856568
   0.88081192  0.37830032  0.48856569
   0.38080838  0.76109568  0.48856650
   0.88080828  0.76109569  0.48856650
   0.13081318  0.06970068  0.54348632
   0.63081317  0.06970068  0.54348624
   0.13081166  0.06969810  0.05586496
   0.63081166  0.06969810  0.05586496
   0.38081166  0.56969810  0.05586496
   0.88081166  0.56969810  0.05586496
   0.38081166  0.06969810  0.19995080
   0.88081166  0.06969810  0.19995080
   0.13081166  0.56969810  0.19995080
   0.63081166  0.56969810  0.19995080
   0.13081200  0.06969576  0.34414302
   0.63081200  0.06969576  0.34414298
   0.38081238  0.56969452  0.34387173
   0.88081230  0.56969452  0.34387173
   0.38081293  0.06969534  0.48951762
   0.88081305  0.06969534  0.48951761
   0.13081305  0.56969659  0.48689930
   0.63081304  0.56969659  0.48689931
Direct configuration=     3
   0.13081166  0.56969810  0.00000000
   0.63081166  0.56969810  0.00000000
   0.38081166  0.26355810  0.05586496
   0.88081166  0.26355810  0.05586496
   0.38081166  0.87583810  0.05586496
   0.88081166  0.87583810  0.05586496
   0.13081166  0.56969810  0.11172992
   0.63081166  0.56969810  0.11172992
   0.13081166  0.06969810  0.14408584
   0.63081166  0.06969810  0.14408584
   0.38081166  0.37583810  0.19995080
   0.88081166  0.37583810  0.19995080
   0.38081166  0.76355810  0.19995080
   0.88081166  0.76355810  0.19995080
   0.13081166  0.06969810  0.25581576
   0.63081166  0.06969810  0.25581576
   0.13080013  0.56970792  0.28829288
   0.63080014  0.56970792  0.28829289
   0.38081160  0.26471236  0.34397707
   0.88081135  0.26471236  0.34397707
   0.38081747  0.87468148  0.34397355
   0.88081724  0.87468144  0.34397354
   0.13081332  0.56970121  0.40063672
   0.63081330  0.56970122  0.40063666
   0.13080367  0.06971158  0.42992986
   0.63080368  0.06971157  0.42993033
   0.38081286  0.38441201  0.48966580
   0.88081255  0.38441197  0.48966581
   0.38080024  0.75498354  0.48966863
   0.88079989  0.75498357  0.48966863
   0.13081694  0.06970711  0.54224247
   0.63081693  0.06970710  0.54224218
   0.13081166  0.06969810  0.05586496
   0.63081166  0.06969810  0.05586496
   0.38081166  0.56969810  0.05586496
   0.88081166  0.56969810  0.05586496
   0.38081166  0.06969810  0.19995080
   0.88081166  0.06969810  0.19995080
   0.13081166  0.56969810  0.19995080
   0.63081166  0.56969810  0.19995080
   0.13081284  0.06968995  0.34440707
   0.63081284  0.06968995  0.34440694
   0.38081416  0.56968565  0.34346241
   0.88081387  0.56968566  0.34346241
   0.38081607  0.06968850  0.49298059
   0.88081651  0.06968850  0.49298058
   0.13081648  0.56969285  0.48386318
   0.63081647  0.56969284  0.48386319
Direct configuration=     4
   0.13081166  0.56969810  0.00000000
   0.63081166  0.56969810  0.00000000
   0.38081166  0.26355810  0.05586496
   0.88081166  0.26355810  0.05586496
   0.38081166  0.87583810  0.05586496
   0.88081166  0.87583810  0.05586496
   0.13081166  0.56969810  0.11172992
   0.63081166  0.56969810  0.11172992
   0.13081166  0.06969810  0.14408584
   0.63081166  0.06969810  0.14408584
   0.38081166  0.37583810  0.19995080
   0.88081166  0.37583810  0.19995080
   0.38081166  0.76355810  0.19995080
   0.88081166  0.76355810  0.19995080
   0.13081166  0.06969810  0.25581576
   0.63081166  0.06969810  0.25581576
   0.13080082  0.56970733  0.28828567
   0.63080083  0.56970733  0.28828567
   0.38081160  0.26464364  0.34398061
   0.88081137  0.26464364  0.34398062
   0.38081713  0.87475034  0.34397730
   0.88081691  0.87475031  0.34397730
   0.13081322  0.56970103  0.40059295
   0.63081320  0.56970103  0.40059290
   0.13080415  0.06971078  0.43006844
   0.63080415  0.06971077  0.43006888
   0.38081279  0.38390155  0.48957392
   0.88081250  0.38390152  0.48957392
   0.38080092  0.75549404  0.48957658
   0.88080059  0.75549406  0.48957658
   0.13081663  0.06970657  0.54234636
   0.63081661  0.06970657  0.54234609
   0.13081166  0.06969810  0.05586496
   0.63081166  0.06969810  0.05586496
   0.38081166  0.56969810  0.05586496
   0.88081166  0.56969810  0.05586496
   0.38081166  0.06969810  0.19995080
   0.88081166  0.06969810  0.19995080
   0.13081166  0.56969810  0.19995080
   0.63081166  0.56969810  0.19995080
   0.13081277  0.06969044  0.34438502
   0.63081277  0.06969043  0.34438490
   0.38081401  0.56968639  0.34349660
   0.88081374  0.56968640  0.34349659
   0.38081581  0.06968907  0.49269136
   0.88081622  0.06968907  0.49269135
   0.13081620  0.56969316  0.48411676
   0.63081619  0.56969315  0.48411677
Direct configuration=     5
   0.13081166  0.56969810  0.00000000
   0.63081166  0.56969810  0.00000000
   0.38081166  0.26355810  0.05586496
   0.88081166  0.26355810  0.05586496
   0.38081166  0.87583810  0.05586496
   0.88081166  0.87583810  0.05586496
   0.13081166  0.56969810  0.11172992
   0.63081166  0.56969810  0.11172992
   0.13081166  0.06969810  0.14408584
   0.63081166  0.06969810  0.14408584
   0.38081166  0.37583810  0.19995080
   0.88081166  0.37583810  0.19995080
   0.38081166  0.76355810  0.19995080
   0.88081166  0.76355810  0.19995080
   0.13081166  0.06969810  0.25581576
   0.63081166  0.06969810  0.25581576
   0.13079688  0.56971088  0.28832440
   0.63079687  0.56971088  0.28832439
   0.38081122  0.26543283  0.34384731
   0.88081102  0.26543285  0.34384732
   0.38081785  0.87394889  0.34384414
   0.88081768  0.87394886  0.34384414
   0.13080921  0.56970573  0.40013698
   0.63080918  0.56970577  0.40013695
   0.13080005  0.06971237  0.43033713
   0.63080005  0.06971234  0.43033738
   0.38080962  0.38380799  0.49025560
   0.88080949  0.38380795  0.49025559
   0.38080217  0.75559501  0.49025882
   0.88080195  0.75559502  0.49025883
   0.13081280  0.06970706  0.54259916
   0.63081279  0.06970704  0.54259895
   0.13081166  0.06969810  0.05586496
   0.63081166  0.06969810  0.05586496
   0.38081166  0.56969810  0.05586496
   0.88081166  0.56969810  0.05586496
   0.38081166  0.06969810  0.19995080
   0.88081166  0.06969810  0.19995080
   0.13081166  0.56969810  0.19995080
   0.63081166  0.56969810  0.19995080
   0.13081666  0.06968855  0.34460365
   0.63081665  0.06968854  0.34460363
   0.38081488  0.56968229  0.34324510
   0.88081474  0.56968229  0.34324510
   0.38081855  0.06968595  0.49266240
   0.88081883  0.06968598  0.49266240
   0.13081341  0.56969321  0.48303962
   0.63081343  0.56969323  0.48303962
Direct configuration=     6
   0.13081166  0.56969810  0.00000000
   0.63081166  0.56969810  0.00000000
   0.38081166  0.26355810  0.05586496
   0.88081166  0.26355810  0.05586496
   0.38081166  0.87583810  0.05586496
   0.88081166  0.87583810  0.05586496
   0.13081166  0.56969810  0.11172992
   0.63081166  0.56969810  0.11172992
   0.13081166  0.06969810  0.14408584
   0.63081166  0.06969810  0.14408584
   0.38081166  0.37583810  0.19995080
   0.88081166  0.37583810  0.19995080
   0.38081166  0.76355810  0.19995080
   0.88081166  0.76355810  0.19995080
   0.13081166  0.06969810  0.25581576
   0.63081166  0.06969810  0.25581576
   0.13078716  0.56971960  0.28841980
   0.63078713  0.56971962  0.28841973
   0.38081027  0.26737654  0.34351901
   0.88081017  0.26737660  0.34351903
   0.38081964  0.87197497  0.34351618
   0.88081957  0.87197497  0.34351617
   0.13079933  0.56971732  0.39901396
   0.63079928  0.56971746  0.39901400
   0.13078996  0.06971628  0.43099888
   0.63078995  0.06971620  0.43099866
   0.38080183  0.38357755  0.49193450
   0.88080209  0.38357751  0.49193447
   0.38080525  0.75584370  0.49193912
   0.88080530  0.75584368  0.49193914
   0.13080337  0.06970828  0.54322179
   0.63080339  0.06970819  0.54322174
   0.13081166  0.06969810  0.05586496
   0.63081166  0.06969810  0.05586496
   0.38081166  0.56969810  0.05586496
   0.88081166  0.56969810  0.05586496
   0.38081166  0.06969810  0.19995080
   0.88081166  0.06969810  0.19995080
   0.13081166  0.56969810  0.19995080
   0.63081166  0.56969810  0.19995080
   0.13082625  0.06968392  0.34514213
   0.63082623  0.06968389  0.34514236
   0.38081701  0.56967219  0.34262568
   0.88081719  0.56967218  0.34262567
   0.38082530  0.06967825  0.49259106
   0.88082525  0.06967837  0.49259109
   0.13080653  0.56969332  0.48038673
   0.63080665  0.56969341  0.48038670
Direct configuration=     7
   0.13081166  0.56969810  0.00000000
   0.63081166  0.56969810  0.00000000
   0.38081166  0.26355810  0.05586496
   0.88081166  0.26355810  0.05586496
   0.38081166  0.87583810  0.05586496
   0.88081166  0.87583810  0.05586496
   0.13081166  0.56969810  0.11172992
   0.63081166  0.56969810  0.11172992
   0.13081166  0.06969810  0.14408584
   0.63081166  0.06969810  0.14408584
   0.38081166  0.37583810  0.19995080
   0.88081166  0.37583810  0.19995080
   0.38081166  0.76355810  0.19995080
   0.88081166  0.76355810  0.19995080
   0.13081166  0.06969810  0.25581576
   0.63081166  0.06969810  0.25581576
   0.13078676  0.56972420  0.28811249
   0.63078673  0.56972422  0.28811245
   0.38081009  0.26727073  0.34334754
   0.88081008  0.26727077  0.34334757
   0.38081466  0.87206349  0.34334537
   0.88081470  0.87206351  0.34334535
   0.13079495  0.56972555  0.39765057
   0.63079492  0.56972572  0.39765058
   0.13079424  0.06972077  0.43117447
   0.63079424  0.06972068  0.43117426
   0.38079228  0.38347518  0.49269895
   0.88079248  0.38347515  0.49269891
   0.38080717  0.75595854  0.49270403
   0.88080729  0.75595852  0.49270406
   0.13080794  0.06971727  0.54351555
   0.63080792  0.06971718  0.54351554
   0.13081166  0.06969810  0.05586496
   0.63081166  0.06969810  0.05586496
   0.38081166  0.56969810  0.05586496
   0.88081166  0.56969810  0.05586496
   0.38081166  0.06969810  0.19995080
   0.88081166  0.06969810  0.19995080
   0.13081166  0.56969810  0.19995080
   0.63081166  0.56969810  0.19995080
   0.13082968  0.06967152  0.34543139
   0.63082967  0.06967149  0.34543157
   0.38081000  0.56966538  0.34184758
   0.88081008  0.56966537  0.34184757
   0.38081777  0.06967536  0.49306252
   0.88081781  0.06967548  0.49306255
   0.13080678  0.56969396  0.48039893
   0.63080682  0.56969401  0.48039892
Direct configuration=     8
   0.13081166  0.56969810  0.00000000
   0.63081166  0.56969810  0.00000000
   0.38081166  0.26355810  0.05586496
   0.88081166  0.26355810  0.05586496
   0.38081166  0.87583810  0.05586496
   0.88081166  0.87583810  0.05586496
   0.13081166  0.56969810  0.11172992
   0.63081166  0.56969810  0.11172992
   0.13081166  0.06969810  0.14408584
   0.63081166  0.06969810  0.14408584
   0.38081166  0.37583810  0.19995080
   0.88081166  0.37583810  0.19995080
   0.38081166  0.76355810  0.19995080
   0.88081166  0.76355810  0.19995080
   0.13081166  0.06969810  0.25581576
   0.63081166  0.06969810  0.25581576
   0.13078654  0.56972672  0.28794393
   0.63078651  0.56972674  0.28794391
   0.38080999  0.26721269  0.34325349
   0.88081003  0.26721273  0.34325352
   0.38081193  0.87211204  0.34325168
   0.88081203  0.87211207  0.34325167
   0.13079254  0.56973007  0.39690279
   0.63079253  0.56973024  0.39690278
   0.13079659  0.06972322  0.43127078
   0.63079659  0.06972313  0.43127057
   0.38078704  0.38341904  0.49311823
   0.88078721  0.38341901  0.49311820
   0.38080821  0.75602153  0.49312357
   0.88080838  0.75602151  0.49312360
   0.13081044  0.06972221  0.54367667
   0.63081040  0.06972212  0.54367669
   0.13081166  0.06969810  0.05586496
   0.63081166  0.06969810  0.05586496
   0.38081166  0.56969810  0.05586496
   0.88081166  0.56969810  0.05586496
   0.38081166  0.06969810  0.19995080
   0.88081166  0.06969810  0.19995080
   0.13081166  0.56969810  0.19995080
   0.63081166  0.56969810  0.19995080
   0.13083156  0.06966472  0.34559004
   0.63083156  0.06966469  0.34559020
   0.38080615  0.56966164  0.34142081
   0.88080618  0.56966164  0.34142080
   0.38081363  0.06967378  0.49332110
   0.88081373  0.06967390  0.49332113
   0.13080692  0.56969431  0.48040562
   0.63080691  0.56969434  0.48040563
Direct configuration=     9
   0.13081166  0.56969810  0.00000000
   0.63081166  0.56969810  0.00000000
   0.38081166  0.26355810  0.05586496
   0.88081166  0.26355810  0.05586496
   0.38081166  0.87583810  0.05586496
   0.88081166  0.87583810  0.05586496
   0.13081166  0.56969810  0.11172992
   0.63081166  0.56969810  0.11172992
   0.13081166  0.06969810  0.14408584
   0.63081166  0.06969810  0.14408584
   0.38081166  0.37583810  0.19995080
   0.88081166  0.37583810  0.19995080
   0.38081166  0.76355810  0.19995080
   0.88081166  0.76355810  0.19995080
   0.13081166  0.06969810  0.25581576
   0.63081166  0.06969810  0.25581576
   0.13079390  0.56973098  0.28718746
   0.63079389  0.56973100  0.28718746
   0.38080756  0.26619171  0.34317693
   0.88080763  0.26619171  0.34317695
   0.38080747  0.87311741  0.34317702
   0.88080761  0.87311742  0.34317701
   0.13080406  0.56973384  0.39701982
   0.63080407  0.56973396  0.39701981
   0.13080375  0.06972721  0.43145375
   0.63080375  0.06972711  0.43145370
   0.38078305  0.38382786  0.49342200
   0.88078307  0.38382783  0.49342197
   0.38080943  0.75561039  0.49342664
   0.88080953  0.75561036  0.49342666
   0.13081578  0.06973050  0.54395094
   0.63081572  0.06973041  0.54395092
   0.13081166  0.06969810  0.05586496
   0.63081166  0.06969810  0.05586496
   0.38081166  0.56969810  0.05586496
   0.88081166  0.56969810  0.05586496
   0.38081166  0.06969810  0.19995080
   0.88081166  0.06969810  0.19995080
   0.13081166  0.56969810  0.19995080
   0.63081166  0.56969810  0.19995080
   0.13082490  0.06965544  0.34551261
   0.63082490  0.06965542  0.34551264
   0.38079134  0.56965584  0.34064198
   0.88079131  0.56965585  0.34064197
   0.38080776  0.06967675  0.49381404
   0.88080789  0.06967683  0.49381407
   0.13080582  0.56969831  0.48054362
   0.63080578  0.56969832  0.48054364
Direct configuration=    10
   0.13081166  0.56969810  0.00000000
   0.63081166  0.56969810  0.00000000
   0.38081166  0.26355810  0.05586496
   0.88081166  0.26355810  0.05586496
   0.38081166  0.87583810  0.05586496
   0.88081166  0.87583810  0.05586496
   0.13081166  0.56969810  0.11172992
   0.63081166  0.56969810  0.11172992
   0.13081166  0.06969810  0.14408584
   0.63081166  0.06969810  0.14408584
   0.38081166  0.37583810  0.19995080
   0.88081166  0.37583810  0.19995080
   0.38081166  0.76355810  0.19995080
   0.88081166  0.76355810  0.19995080
   0.13081166  0.06969810  0.25581576
   0.63081166  0.06969810  0.25581576
   0.13079742  0.56973302  0.28682563
   0.63079742  0.56973303  0.28682565
   0.38080640  0.26570337  0.34314031
   0.88080648  0.26570335  0.34314034
   0.38080533  0.87359829  0.34314130
   0.88080549  0.87359827  0.34314130
   0.13080957  0.56973564  0.39707579
   0.63080958  0.56973573  0.39707578
   0.13080717  0.06972912  0.43154127
   0.63080718  0.06972902  0.43154129
   0.38078114  0.38402340  0.49356730
   0.88078109  0.38402337  0.49356726
   0.38081002  0.75541373  0.49357159
   0.88081007  0.75541370  0.49357162
   0.13081834  0.06973447  0.54408212
   0.63081826  0.06973437  0.54408208
   0.13081166  0.06969810  0.05586496
   0.63081166  0.06969810  0.05586496
   0.38081166  0.56969810  0.05586496
   0.88081166  0.56969810  0.05586496
   0.38081166  0.06969810  0.19995080
   0.88081166  0.06969810  0.19995080
   0.13081166  0.56969810  0.19995080
   0.63081166  0.56969810  0.19995080
   0.13082171  0.06965100  0.34547557
   0.63082171  0.06965098  0.34547554
   0.38078426  0.56965307  0.34026946
   0.88078419  0.56965308  0.34026946
   0.38080495  0.06967817  0.49404982
   0.88080509  0.06967824  0.49404984
   0.13080529  0.56970023  0.48060962
   0.63080524  0.56970023  0.48060965
Direct configuration=    11
   0.13081166  0.56969810  0.00000000
   0.63081166  0.56969810  0.00000000
   0.38081166  0.26355810  0.05586496
   0.88081166  0.26355810  0.05586496
   0.38081166  0.87583810  0.05586496
   0.88081166  0.87583810  0.05586496
   0.13081166  0.56969810  0.11172992
   0.63081166  0.56969810  0.11172992
   0.13081166  0.06969810  0.14408584
   0.63081166  0.06969810  0.14408584
   0.38081166  0.37583810  0.19995080
   0.88081166  0.37583810  0.19995080
   0.38081166  0.76355810  0.19995080
   0.88081166  0.76355810  0.19995080
   0.13081166  0.06969810  0.25581576
   0.63081166  0.06969810  0.25581576
   0.13078401  0.56972875  0.28657679
   0.63078402  0.56972877  0.28657680
   0.38080537  0.26601543  0.34304834
   0.88080540  0.26601543  0.34304835
   0.38080775  0.87327938  0.34305167
   0.88080785  0.87327938  0.34305167
   0.13080946  0.56973826  0.39714148
   0.63080945  0.56973834  0.39714149
   0.13081211  0.06973149  0.43166697
   0.63081211  0.06973140  0.43166699
   0.38078417  0.38402906  0.49364542
   0.88078413  0.38402904  0.49364539
   0.38080515  0.75541952  0.49364962
   0.88080519  0.75541949  0.49364964
   0.13080926  0.06974163  0.54442394
   0.63080922  0.06974154  0.54442390
   0.13081166  0.06969810  0.05586496
   0.63081166  0.06969810  0.05586496
   0.38081166  0.56969810  0.05586496
   0.88081166  0.56969810  0.05586496
   0.38081166  0.06969810  0.19995080
   0.88081166  0.06969810  0.19995080
   0.13081166  0.56969810  0.19995080
   0.63081166  0.56969810  0.19995080
   0.13081534  0.06964597  0.34552804
   0.63081535  0.06964594  0.34552801
   0.38078908  0.56964785  0.34037812
   0.88078911  0.56964785  0.34037812
   0.38081209  0.06968316  0.49415804
   0.88081210  0.06968321  0.49415806
   0.13080470  0.56969757  0.48069327
   0.63080470  0.56969758  0.48069328
Direct configuration=    12
   0.13081166  0.56969810  0.00000000
   0.63081166  0.56969810  0.00000000
   0.38081166  0.26355810  0.05586496
   0.88081166  0.26355810  0.05586496
   0.38081166  0.87583810  0.05586496
   0.88081166  0.87583810  0.05586496
   0.13081166  0.56969810  0.11172992
   0.63081166  0.56969810  0.11172992
   0.13081166  0.06969810  0.14408584
   0.63081166  0.06969810  0.14408584
   0.38081166  0.37583810  0.19995080
   0.88081166  0.37583810  0.19995080
   0.38081166  0.76355810  0.19995080
   0.88081166  0.76355810  0.19995080
   0.13081166  0.06969810  0.25581576
   0.63081166  0.06969810  0.25581576
   0.13077568  0.56972610  0.28642211
   0.63077569  0.56972612  0.28642211
   0.38080473  0.26620941  0.34299117
   0.88080472  0.26620942  0.34299118
   0.38080926  0.87308115  0.34299595
   0.88080931  0.87308116  0.34299595
   0.13080938  0.56973990  0.39718231
   0.63080937  0.56973995  0.39718233
   0.13081518  0.06973296  0.43174511
   0.63081518  0.06973288  0.43174512
   0.38078606  0.38403258  0.49369398
   0.88078602  0.38403256  0.49369395
   0.38080212  0.75542311  0.49369812
   0.88080216  0.75542309  0.49369814
   0.13080362  0.06974609  0.54463641
   0.63080359  0.06974599  0.54463638
   0.13081166  0.06969810  0.05586496
   0.63081166  0.06969810  0.05586496
   0.38081166  0.56969810  0.05586496
   0.88081166  0.56969810  0.05586496
   0.38081166  0.06969810  0.19995080
   0.88081166  0.06969810  0.19995080
   0.13081166  0.56969810  0.19995080
   0.63081166  0.56969810  0.19995080
   0.13081138  0.06964284  0.34556065
   0.63081139  0.06964281  0.34556063
   0.38079208  0.56964460  0.34044566
   0.88079217  0.56964459  0.34044567
   0.38081653  0.06968626  0.49422532
   0.88081645  0.06968629  0.49422534
   0.13080433  0.56969592  0.48074527
   0.63080437  0.56969594  0.48074527
Direct configuration=    13
   0.13081166  0.56969810  0.00000000
   0.63081166  0.56969810  0.00000000
   0.38081166  0.26355810  0.05586496
   0.88081166  0.26355810  0.05586496
   0.38081166  0.87583810  0.05586496
   0.88081166  0.87583810  0.05586496
   0.13081166  0.56969810  0.11172992
   0.63081166  0.56969810  0.11172992
   0.13081166  0.06969810  0.14408584
   0.63081166  0.06969810  0.14408584
   0.38081166  0.37583810  0.19995080
   0.88081166  0.37583810  0.19995080
   0.38081166  0.76355810  0.19995080
   0.88081166  0.76355810  0.19995080
   0.13081166  0.06969810  0.25581576
   0.63081166  0.06969810  0.25581576
   0.13076695  0.56971824  0.28656384
   0.63076695  0.56971826  0.28656384
   0.38080313  0.26647651  0.34290349
   0.88080307  0.26647652  0.34290350
   0.38081093  0.87280010  0.34291037
   0.88081092  0.87280011  0.34291038
   0.13080685  0.56973977  0.39725877
   0.63080683  0.56973981  0.39725878
   0.13081495  0.06974151  0.43191270
   0.63081495  0.06974145  0.43191268
   0.38079045  0.38395771  0.49378297
   0.88079043  0.38395770  0.49378294
   0.38079903  0.75551202  0.49378449
   0.88079907  0.75551201  0.49378452
   0.13078696  0.06975844  0.54500283
   0.63078696  0.06975835  0.54500283
   0.13081166  0.06969810  0.05586496
   0.63081166  0.06969810  0.05586496
   0.38081166  0.56969810  0.05586496
   0.88081166  0.56969810  0.05586496
   0.38081166  0.06969810  0.19995080
   0.88081166  0.06969810  0.19995080
   0.13081166  0.56969810  0.19995080
   0.63081166  0.56969810  0.19995080
   0.13080765  0.06963703  0.34556548
   0.63080765  0.06963700  0.34556548
   0.38079217  0.56963840  0.34045042
   0.88079219  0.56963839  0.34045042
   0.38081802  0.06969133  0.49453399
   0.88081799  0.06969133  0.49453401
   0.13080193  0.56969996  0.48088799
   0.63080195  0.56970000  0.48088799
Direct configuration=    14
   0.13081166  0.56969810  0.00000000
   0.63081166  0.56969810  0.00000000
   0.38081166  0.26355810  0.05586496
   0.88081166  0.26355810  0.05586496
   0.38081166  0.87583810  0.05586496
   0.88081166  0.87583810  0.05586496
   0.13081166  0.56969810  0.11172992
   0.63081166  0.56969810  0.11172992
   0.13081166  0.06969810  0.14408584
   0.63081166  0.06969810  0.14408584
   0.38081166  0.37583810  0.19995080
   0.88081166  0.37583810  0.19995080
   0.38081166  0.76355810  0.19995080
   0.88081166  0.76355810  0.19995080
   0.13081166  0.06969810  0.25581576
   0.63081166  0.06969810  0.25581576
   0.13075261  0.56970534  0.28679641
   0.63075261  0.56970536  0.28679642
   0.38080051  0.26691479  0.34275963
   0.88080035  0.26691480  0.34275962
   0.38081368  0.87233892  0.34276995
   0.88081357  0.87233893  0.34276996
   0.13080268  0.56973957  0.39738423
   0.63080265  0.56973958  0.39738424
   0.13081457  0.06975553  0.43218769
   0.63081457  0.06975552  0.43218764
   0.38079765  0.38383487  0.49392898
   0.88079767  0.38383484  0.49392897
   0.38079396  0.75565791  0.49392623
   0.88079399  0.75565792  0.49392625
   0.13075961  0.06977871  0.54560409
   0.63075966  0.06977864  0.54560414
   0.13081166  0.06969810  0.05586496
   0.63081166  0.06969810  0.05586496
   0.38081166  0.56969810  0.05586496
   0.88081166  0.56969810  0.05586496
   0.38081166  0.06969810  0.19995080
   0.88081166  0.06969810  0.19995080
   0.13081166  0.56969810  0.19995080
   0.63081166  0.56969810  0.19995080
   0.13080153  0.06962750  0.34557341
   0.63080152  0.06962747  0.34557344
   0.38079232  0.56962823  0.34045822
   0.88079223  0.56962821  0.34045823
   0.38082047  0.06969964  0.49504050
   0.88082052  0.06969959  0.49504051
   0.13079800  0.56970658  0.48112219
   0.63079799  0.56970666  0.48112217
Direct configuration=    15
   0.13081166  0.56969810  0.00000000
   0.63081166  0.56969810  0.00000000
   0.38081166  0.26355810  0.05586496
   0.88081166  0.26355810  0.05586496
   0.38081166  0.87583810  0.05586496
   0.88081166  0.87583810  0.05586496
   0.13081166  0.56969810  0.11172992
   0.63081166  0.56969810  0.11172992
   0.13081166  0.06969810  0.14408584
   0.63081166  0.06969810  0.14408584
   0.38081166  0.37583810  0.19995080
   0.88081166  0.37583810  0.19995080
   0.38081166  0.76355810  0.19995080
   0.88081166  0.76355810  0.19995080
   0.13081166  0.06969810  0.25581576
   0.63081166  0.06969810  0.25581576
   0.13075447  0.56969629  0.28691117
   0.63075447  0.56969631  0.28691117
   0.38079775  0.26645457  0.34271948
   0.88079762  0.26645458  0.34271947
   0.38081406  0.87278407  0.34273028
   0.88081398  0.87278408  0.34273029
   0.13080481  0.56973340  0.39755435
   0.63080478  0.56973339  0.39755435
   0.13080749  0.06976722  0.43236351
   0.63080749  0.06976723  0.43236349
   0.38079763  0.38383244  0.49406540
   0.88079763  0.38383242  0.49406539
   0.38078950  0.75567262  0.49405980
   0.88078952  0.75567262  0.49405981
   0.13076180  0.06979768  0.54590624
   0.63076183  0.06979760  0.54590629
   0.13081166  0.06969810  0.05586496
   0.63081166  0.06969810  0.05586496
   0.38081166  0.56969810  0.05586496
   0.88081166  0.56969810  0.05586496
   0.38081166  0.06969810  0.19995080
   0.88081166  0.06969810  0.19995080
   0.13081166  0.56969810  0.19995080
   0.63081166  0.56969810  0.19995080
   0.13080352  0.06962144  0.34568580
   0.63080351  0.06962142  0.34568582
   0.38078025  0.56961950  0.34057864
   0.88078021  0.56961949  0.34057865
   0.38079551  0.06970651  0.49539776
   0.88079549  0.06970645  0.49539776
   0.13080018  0.56971791  0.48115643
   0.63080018  0.56971798  0.48115642
Direct configuration=    16
   0.13081166  0.56969810  0.00000000
   0.63081166  0.56969810  0.00000000
   0.38081166  0.26355810  0.05586496
   0.88081166  0.26355810  0.05586496
   0.38081166  0.87583810  0.05586496
   0.88081166  0.87583810  0.05586496
   0.13081166  0.56969810  0.11172992
   0.63081166  0.56969810  0.11172992
   0.13081166  0.06969810  0.14408584
   0.63081166  0.06969810  0.14408584
   0.38081166  0.37583810  0.19995080
   0.88081166  0.37583810  0.19995080
   0.38081166  0.76355810  0.19995080
   0.88081166  0.76355810  0.19995080
   0.13081166  0.06969810  0.25581576
   0.63081166  0.06969810  0.25581576
   0.13075669  0.56968548  0.28704833
   0.63075669  0.56968550  0.28704832
   0.38079446  0.26590451  0.34267150
   0.88079436  0.26590452  0.34267148
   0.38081452  0.87331613  0.34268286
   0.88081446  0.87331612  0.34268288
   0.13080735  0.56972602  0.39775768
   0.63080734  0.56972599  0.39775767
   0.13079903  0.06978119  0.43257366
   0.63079902  0.06978124  0.43257366
   0.38079761  0.38382953  0.49422845
   0.88079759  0.38382953  0.49422845
   0.38078417  0.75569020  0.49421944
   0.88078418  0.75569017  0.49421945
   0.13076441  0.06982035  0.54626739
   0.63076443  0.06982028  0.54626742
   0.13081166  0.06969810  0.05586496
   0.63081166  0.06969810  0.05586496
   0.38081166  0.56969810  0.05586496
   0.88081166  0.56969810  0.05586496
   0.38081166  0.06969810  0.19995080
   0.88081166  0.06969810  0.19995080
   0.13081166  0.56969810  0.19995080
   0.63081166  0.56969810  0.19995080
   0.13080590  0.06961420  0.34582013
   0.63080589  0.06961418  0.34582014
   0.38076583  0.56960906  0.34072257
   0.88076584  0.56960907  0.34072258
   0.38076568  0.06971472  0.49582477
   0.88076557  0.06971465  0.49582475
   0.13080279  0.56973144  0.48119736
   0.63080279  0.56973151  0.48119735
Direct configuration=    17
   0.13081166  0.56969810  0.00000000
   0.63081166  0.56969810  0.00000000
   0.38081166  0.26355810  0.05586496
   0.88081166  0.26355810  0.05586496