  49  49   0   0
  0.1652960E+02  0.5844679E-09  0.6319380E-09  0.2192922E-08  0.1000000E-15
  1.000000000000000E-004
  CAR 
 dopGeO2_Ir_Hab_sp2                      
     12.50356188    -22.64716072  301      1.11536726      1.00000000
    -22.647  0.0000E+00  0.0000E+00  0.0000E+00  0.0000E+00
    -22.530  0.0000E+00  0.0000E+00  0.0000E+00  0.0000E+00
    -22.413  0.0000E+00  0.0000E+00  0.0000E+00  0.0000E+00
    -22.296  0.0000E+00  0.0000E+00  0.0000E+00  0.0000E+00
    -22.178  0.0000E+00  0.0000E+00  0.0000E+00  0.0000E+00
    -22.061  0.0000E+00  0.0000E+00  0.0000E+00  0.0000E+00
    -21.944  0.0000E+00  0.0000E+00  0.0000E+00  0.0000E+00
    -21.827  0.0000E+00  0.0000E+00  0.0000E+00  0.0000E+00
    -21.710  0.0000E+00  0.0000E+00  0.0000E+00  0.0000E+00
    -21.593  0.0000E+00  0.0000E+00  0.0000E+00  0.0000E+00
    -21.475  0.0000E+00  0.0000E+00  0.0000E+00  0.0000E+00
    -21.358  0.0000E+00  0.0000E+00  0.0000E+00  0.0000E+00
    -21.241  0.1563E-10  0.1348E-10  0.1832E-11  0.1580E-11
    -21.124  0.9321E-05  0.8731E-05  0.1092E-05  0.1023E-05
    -21.007  0.4748E-03  0.4718E-03  0.5672E-04  0.5630E-04
    -20.890  0.1525E-02  0.1510E-02  0.2354E-03  0.2332E-03
    -20.772  0.1724E-02  0.1718E-02  0.4374E-03  0.4345E-03
    -20.655  0.1760E-02  0.1769E-02  0.6435E-03  0.6418E-03
    -20.538  0.2403E-02  0.2390E-02  0.9251E-03  0.9218E-03
    -20.421  0.4312E-02  0.4313E-02  0.1430E-02  0.1427E-02
    -20.304  0.3520E-02  0.3508E-02  0.1843E-02  0.1838E-02
    -20.187  0.3739E-02  0.3727E-02  0.2281E-02  0.2275E-02
    -20.069  0.6011E-02  0.6019E-02  0.2985E-02  0.2980E-02
    -19.952  0.6475E-02  0.6478E-02  0.3744E-02  0.3739E-02
    -19.835  0.6461E-02  0.6472E-02  0.4501E-02  0.4497E-02
    -19.718  0.5064E-02  0.5016E-02  0.5094E-02  0.5085E-02
    -19.601  0.4838E-02  0.4798E-02  0.5661E-02  0.5647E-02
    -19.484  0.8873E-02  0.8920E-02  0.6701E-02  0.6692E-02
    -19.366  0.8366E-02  0.8237E-02  0.7681E-02  0.7658E-02
    -19.249  0.7749E-02  0.7866E-02  0.8589E-02  0.8579E-02
    -19.132  0.6827E-02  0.6762E-02  0.9389E-02  0.9372E-02
    -19.015  0.8668E-02  0.8738E-02  0.1040E-01  0.1040E-01
    -18.898  0.9362E-02  0.9305E-02  0.1150E-01  0.1149E-01
    -18.781  0.8173E-02  0.8176E-02  0.1246E-01  0.1244E-01
    -18.663  0.8908E-02  0.8787E-02  0.1350E-01  0.1347E-01
    -18.546  0.7960E-02  0.7910E-02  0.1444E-01  0.1440E-01
    -18.429  0.7193E-02  0.7165E-02  0.1528E-01  0.1524E-01
    -18.312  0.8904E-02  0.9069E-02  0.1632E-01  0.1630E-01
    -18.195  0.6483E-02  0.6429E-02  0.1708E-01  0.1706E-01
    -18.078  0.1262E-01  0.1268E-01  0.1856E-01  0.1854E-01
    -17.960  0.1681E-01  0.1665E-01  0.2053E-01  0.2049E-01
    -17.843  0.1721E-01  0.1732E-01  0.2255E-01  0.2252E-01
    -17.726  0.1949E-01  0.1941E-01  0.2483E-01  0.2480E-01
    -17.609  0.1693E-01  0.1707E-01  0.2681E-01  0.2680E-01
    -17.492  0.1403E-01  0.1403E-01  0.2846E-01  0.2844E-01
    -17.375  0.3873E-02  0.3931E-02  0.2891E-01  0.2890E-01
    -17.257  0.7210E-03  0.7827E-03  0.2899E-01  0.2899E-01
    -17.140  0.5244E-04  0.7292E-04  0.2900E-01  0.2900E-01
    -17.023  0.1098E-08  0.2762E-08  0.2900E-01  0.2900E-01
    -16.906  0.6487E-12  0.6099E-12  0.2900E-01  0.2900E-01
    -16.789  0.3153E-05  0.3048E-05  0.2900E-01  0.2900E-01
    -16.672  0.2108E-02  0.2079E-02  0.2925E-01  0.2924E-01
    -16.554  0.5850E-02  0.5861E-02  0.2993E-01  0.2993E-01
    -16.437  0.5729E-03  0.5909E-03  0.3000E-01  0.3000E-01
    -16.320  0.4875E-06  0.5422E-06  0.3000E-01  0.3000E-01
    -16.203  0.1699E-07  0.1746E-07  0.3000E-01  0.3000E-01
    -16.086  0.1672E-03  0.1688E-03  0.3002E-01  0.3002E-01
    -15.969  0.2213E-02  0.2219E-02  0.3028E-01  0.3028E-01
    -15.851  0.3717E-02  0.3714E-02  0.3071E-01  0.3071E-01
    -15.734  0.4168E-03  0.4153E-03  0.3076E-01  0.3076E-01
    -15.617  0.3484E-02  0.3489E-02  0.3117E-01  0.3117E-01
    -15.500  0.6709E-03  0.6647E-03  0.3125E-01  0.3125E-01
    -15.383  0.2010E-02  0.2021E-02  0.3149E-01  0.3149E-01
    -15.266  0.3203E-02  0.3198E-02  0.3186E-01  0.3186E-01
    -15.148  0.1185E-02  0.1179E-02  0.3200E-01  0.3200E-01
    -15.031  0.1592E-05  0.1553E-05  0.3200E-01  0.3200E-01
    -14.914  0.9182E-13  0.8756E-13  0.3200E-01  0.3200E-01
    -14.797  0.0000E+00  0.0000E+00  0.3200E-01  0.3200E-01
    -14.680  0.0000E+00  0.0000E+00  0.3200E-01  0.3200E-01
    -14.562  0.0000E+00  0.0000E+00  0.3200E-01  0.3200E-01
    -14.445  0.0000E+00  0.0000E+00  0.3200E-01  0.3200E-01
    -14.328  0.0000E+00  0.0000E+00  0.3200E-01  0.3200E-01
    -14.211  0.0000E+00  0.0000E+00  0.3200E-01  0.3200E-01
    -14.094  0.0000E+00  0.0000E+00  0.3200E-01  0.3200E-01
    -13.977  0.0000E+00  0.0000E+00  0.3200E-01  0.3200E-01
    -13.859  0.0000E+00  0.0000E+00  0.3200E-01  0.3200E-01
    -13.742  0.0000E+00  0.0000E+00  0.3200E-01  0.3200E-01
    -13.625  0.0000E+00  0.0000E+00  0.3200E-01  0.3200E-01
    -13.508  0.0000E+00  0.0000E+00  0.3200E-01  0.3200E-01
    -13.391  0.0000E+00  0.0000E+00  0.3200E-01  0.3200E-01
    -13.274  0.0000E+00  0.0000E+00  0.3200E-01  0.3200E-01
    -13.156  0.0000E+00  0.0000E+00  0.3200E-01  0.3200E-01
    -13.039  0.0000E+00  0.0000E+00  0.3200E-01  0.3200E-01
    -12.922  0.0000E+00  0.0000E+00  0.3200E-01  0.3200E-01
    -12.805  0.0000E+00  0.0000E+00  0.3200E-01  0.3200E-01
    -12.688  0.0000E+00  0.0000E+00  0.3200E-01  0.3200E-01
    -12.571  0.0000E+00  0.0000E+00  0.3200E-01  0.3200E-01
    -12.453  0.0000E+00  0.0000E+00  0.3200E-01  0.3200E-01
    -12.336  0.0000E+00  0.0000E+00  0.3200E-01  0.3200E-01
    -12.219  0.0000E+00  0.0000E+00  0.3200E-01  0.3200E-01
    -12.102  0.0000E+00  0.0000E+00  0.3200E-01  0.3200E-01
    -11.985  0.0000E+00  0.0000E+00  0.3200E-01  0.3200E-01
    -11.868  0.0000E+00  0.0000E+00  0.3200E-01  0.3200E-01
    -11.750  0.0000E+00  0.0000E+00  0.3200E-01  0.3200E-01
    -11.633  0.0000E+00  0.0000E+00  0.3200E-01  0.3200E-01
    -11.516  0.0000E+00  0.0000E+00  0.3200E-01  0.3200E-01
    -11.399  0.0000E+00  0.0000E+00  0.3200E-01  0.3200E-01
    -11.282  0.0000E+00  0.0000E+00  0.3200E-01  0.3200E-01
    -11.165  0.0000E+00  0.0000E+00  0.3200E-01  0.3200E-01
    -11.047  0.0000E+00  0.0000E+00  0.3200E-01  0.3200E-01
    -10.930  0.0000E+00  0.0000E+00  0.3200E-01  0.3200E-01
    -10.813  0.0000E+00  0.0000E+00  0.3200E-01  0.3200E-01
    -10.696  0.0000E+00  0.0000E+00  0.3200E-01  0.3200E-01
    -10.579  0.1074E-12  0.9885E-13  0.3200E-01  0.3200E-01
    -10.462  0.9613E-06  0.9220E-06  0.3200E-01  0.3200E-01
    -10.344  0.8896E-03  0.8808E-03  0.3210E-01  0.3210E-01
    -10.227  0.2047E-02  0.2052E-02  0.3234E-01  0.3234E-01
    -10.110  0.2447E-02  0.2439E-02  0.3263E-01  0.3263E-01
     -9.993  0.4556E-02  0.4558E-02  0.3316E-01  0.3316E-01
     -9.876  0.5908E-02  0.5915E-02  0.3386E-01  0.3386E-01
     -9.759  0.2133E-02  0.2125E-02  0.3411E-01  0.3411E-01
     -9.641  0.5700E-02  0.5691E-02  0.3477E-01  0.3477E-01
     -9.524  0.5732E-02  0.5741E-02  0.3545E-01  0.3545E-01
     -9.407  0.8028E-02  0.8015E-02  0.3639E-01  0.3638E-01
     -9.290  0.8979E-02  0.8976E-02  0.3744E-01  0.3744E-01
     -9.173  0.5298E-02  0.5304E-02  0.3806E-01  0.3806E-01
     -9.056  0.3957E-02  0.3964E-02  0.3852E-01  0.3852E-01
     -8.938  0.4465E-02  0.4460E-02  0.3905E-01  0.3904E-01
     -8.821  0.6569E-02  0.6531E-02  0.3982E-01  0.3981E-01
     -8.704  0.6003E-02  0.6036E-02  0.4052E-01  0.4052E-01
     -8.587  0.4444E-02  0.4453E-02  0.4104E-01  0.4104E-01
     -8.470  0.3609E-02  0.3604E-02  0.4146E-01  0.4146E-01
     -8.353  0.2923E-02  0.2928E-02  0.4181E-01  0.4180E-01
     -8.235  0.3150E-02  0.3155E-02  0.4217E-01  0.4217E-01
     -8.118  0.4925E-02  0.4911E-02  0.4275E-01  0.4275E-01
     -8.001  0.6846E-02  0.6832E-02  0.4355E-01  0.4355E-01
     -7.884  0.3094E-02  0.3102E-02  0.4392E-01  0.4391E-01
     -7.767  0.4169E-02  0.4179E-02  0.4440E-01  0.4440E-01
     -7.650  0.2236E-02  0.2243E-02  0.4467E-01  0.4467E-01
     -7.532  0.1621E-02  0.1618E-02  0.4486E-01  0.4486E-01
     -7.415  0.2523E-02  0.2502E-02  0.4515E-01  0.4515E-01
     -7.298  0.3505E-02  0.3493E-02  0.4556E-01  0.4556E-01
     -7.181  0.4745E-02  0.4743E-02  0.4612E-01  0.4611E-01
     -7.064  0.6012E-02  0.5976E-02  0.4682E-01  0.4681E-01
     -6.947  0.4382E-02  0.4421E-02  0.4734E-01  0.4733E-01
     -6.829  0.6509E-02  0.6464E-02  0.4810E-01  0.4809E-01
     -6.712  0.7336E-02  0.7358E-02  0.4896E-01  0.4895E-01
     -6.595  0.7925E-02  0.7918E-02  0.4989E-01  0.4988E-01
     -6.478  0.9964E-02  0.9793E-02  0.5106E-01  0.5103E-01
     -6.361  0.1083E-01  0.1101E-01  0.5232E-01  0.5232E-01
     -6.243  0.9617E-02  0.9424E-02  0.5345E-01  0.5342E-01
     -6.126  0.9904E-02  0.9997E-02  0.5461E-01  0.5459E-01
     -6.009  0.7731E-02  0.7778E-02  0.5552E-01  0.5550E-01
     -5.892  0.8132E-02  0.8164E-02  0.5647E-01  0.5646E-01
     -5.775  0.8010E-02  0.7983E-02  0.5741E-01  0.5739E-01
     -5.658  0.1130E-01  0.1124E-01  0.5873E-01  0.5871E-01
     -5.540  0.1075E-01  0.1072E-01  0.5999E-01  0.5997E-01
     -5.423  0.1101E-01  0.1095E-01  0.6128E-01  0.6125E-01
     -5.306  0.1085E-01  0.1091E-01  0.6255E-01  0.6253E-01
     -5.189  0.1318E-01  0.1318E-01  0.6410E-01  0.6407E-01
     -5.072  0.1269E-01  0.1272E-01  0.6558E-01  0.6556E-01
     -4.955  0.1321E-01  0.1308E-01  0.6713E-01  0.6710E-01
     -4.837  0.1001E-01  0.1008E-01  0.6830E-01  0.6828E-01
     -4.720  0.1225E-01  0.1223E-01  0.6974E-01  0.6971E-01
     -4.603  0.9518E-02  0.9556E-02  0.7085E-01  0.7083E-01
     -4.486  0.1045E-01  0.1028E-01  0.7208E-01  0.7203E-01
     -4.369  0.1237E-01  0.1246E-01  0.7353E-01  0.7349E-01
     -4.252  0.8772E-02  0.8696E-02  0.7456E-01  0.7451E-01
     -4.134  0.1067E-01  0.1084E-01  0.7581E-01  0.7578E-01
     -4.017  0.1136E-01  0.1093E-01  0.7714E-01  0.7706E-01
     -3.900  0.1421E-01  0.1440E-01  0.7880E-01  0.7875E-01
     -3.783  0.1078E-01  0.1096E-01  0.8006E-01  0.8004E-01
     -3.666  0.7784E-02  0.7693E-02  0.8098E-01  0.8094E-01
     -3.549  0.1183E-01  0.1165E-01  0.8236E-01  0.8230E-01
     -3.431  0.1394E-01  0.1391E-01  0.8400E-01  0.8393E-01
     -3.314  0.1566E-01  0.1562E-01  0.8583E-01  0.8576E-01
     -3.197  0.1289E-01  0.1311E-01  0.8734E-01  0.8730E-01
     -3.080  0.1206E-01  0.1220E-01  0.8875E-01  0.8873E-01
     -2.963  0.1679E-01  0.1673E-01  0.9072E-01  0.9069E-01
     -2.846  0.1589E-01  0.1581E-01  0.9258E-01  0.9254E-01
     -2.728  0.1895E-01  0.1872E-01  0.9480E-01  0.9473E-01
     -2.611  0.1439E-01  0.1474E-01  0.9649E-01  0.9646E-01
     -2.494  0.1296E-01  0.1300E-01  0.9801E-01  0.9798E-01
     -2.377  0.1225E-01  0.1217E-01  0.9944E-01  0.9941E-01
     -2.260  0.1624E-01  0.1614E-01  0.1013E+00  0.1013E+00
     -2.143  0.1606E-01  0.1599E-01  0.1032E+00  0.1032E+00
     -2.025  0.1936E-01  0.1909E-01  0.1055E+00  0.1054E+00
     -1.908  0.2130E-01  0.2145E-01  0.1080E+00  0.1079E+00
     -1.791  0.2063E-01  0.2079E-01  0.1104E+00  0.1104E+00
     -1.674  0.1811E-01  0.1806E-01  0.1125E+00  0.1125E+00
     -1.557  0.1781E-01  0.1797E-01  0.1146E+00  0.1146E+00
     -1.440  0.1559E-01  0.1566E-01  0.1164E+00  0.1164E+00
     -1.322  0.1658E-01  0.1665E-01  0.1184E+00  0.1184E+00
     -1.205  0.1268E-01  0.1278E-01  0.1199E+00  0.1199E+00
     -1.088  0.9577E-02  0.9556E-02  0.1210E+00  0.1210E+00
     -0.971  0.6707E-02  0.6811E-02  0.1218E+00  0.1218E+00
     -0.854  0.3751E-02  0.3734E-02  0.1222E+00  0.1222E+00
     -0.737  0.3468E-02  0.3490E-02  0.1226E+00  0.1226E+00
     -0.619  0.1956E-02  0.1915E-02  0.1229E+00  0.1229E+00
     -0.502  0.3332E-02  0.3249E-02  0.1232E+00  0.1232E+00
     -0.385  0.7737E-02  0.7584E-02  0.1242E+00  0.1241E+00
     -0.268  0.9446E-02  0.9682E-02  0.1253E+00  0.1253E+00
     -0.151  0.6413E-02  0.6245E-02  0.1260E+00  0.1260E+00
     -0.034  0.1992E-02  0.2144E-02  0.1262E+00  0.1262E+00
      0.084  0.1466E-02  0.9782E-03  0.1264E+00  0.1264E+00
      0.201  0.6158E-02  0.6345E-02  0.1271E+00  0.1271E+00
      0.318  0.8990E-02  0.9344E-02  0.1282E+00  0.1282E+00
      0.435  0.6082E-02  0.5526E-02  0.1289E+00  0.1288E+00
      0.552  0.8262E-03  0.1365E-02  0.1290E+00  0.1290E+00
      0.669  0.5400E-03  0.4233E-03  0.1291E+00  0.1290E+00
      0.787  0.3112E-02  0.1960E-02  0.1294E+00  0.1293E+00
      0.904  0.5606E-02  0.4326E-02  0.1301E+00  0.1298E+00
      1.021  0.7529E-02  0.4898E-02  0.1310E+00  0.1304E+00
      1.138  0.8337E-03  0.5599E-02  0.1311E+00  0.1310E+00
      1.255  0.9587E-03  0.1390E-02  0.1312E+00  0.1312E+00
      1.372  0.7077E-03  0.6360E-03  0.1313E+00  0.1313E+00
      1.490  0.1177E-02  0.1260E-02  0.1314E+00  0.1314E+00
      1.607  0.2769E-02  0.2524E-02  0.1317E+00  0.1317E+00
      1.724  0.2858E-02  0.2732E-02  0.1321E+00  0.1320E+00
      1.841  0.3631E-02  0.2865E-02  0.1325E+00  0.1324E+00
      1.958  0.2827E-02  0.3732E-02  0.1328E+00  0.1328E+00
      2.076  0.3592E-02  0.3834E-02  0.1332E+00  0.1332E+00
      2.193  0.1431E-02  0.1442E-02  0.1334E+00  0.1334E+00
      2.310  0.5665E-02  0.5531E-02  0.1341E+00  0.1341E+00
      2.427  0.1355E-02  0.1391E-02  0.1342E+00  0.1342E+00
      2.544  0.7290E-03  0.8025E-03  0.1343E+00  0.1343E+00
      2.661  0.3835E-03  0.3678E-03  0.1344E+00  0.1344E+00
      2.779  0.1744E-02  0.1676E-02  0.1346E+00  0.1346E+00
      2.896  0.5410E-03  0.6271E-03  0.1346E+00  0.1346E+00
      3.013  0.7576E-03  0.7270E-03  0.1347E+00  0.1347E+00
      3.130  0.1886E-02  0.1914E-02  0.1349E+00  0.1349E+00
      3.247  0.2284E-04  0.2545E-04  0.1349E+00  0.1349E+00
      3.364  0.8260E-03  0.7787E-03  0.1350E+00  0.1350E+00
      3.482  0.3550E-02  0.3577E-02  0.1355E+00  0.1354E+00
      3.599  0.1562E-02  0.1546E-02  0.1356E+00  0.1356E+00
      3.716  0.1286E-02  0.1275E-02  0.1358E+00  0.1358E+00
      3.833  0.3986E-02  0.3974E-02  0.1363E+00  0.1362E+00
      3.950  0.1515E-02  0.1545E-02  0.1364E+00  0.1364E+00
      4.067  0.5186E-02  0.5157E-02  0.1370E+00  0.1370E+00
      4.185  0.4131E-02  0.3800E-02  0.1375E+00  0.1375E+00
      4.302  0.4427E-02  0.4726E-02  0.1380E+00  0.1380E+00
      4.419  0.7029E-02  0.6542E-02  0.1389E+00  0.1388E+00
      4.536  0.7465E-02  0.7926E-02  0.1397E+00  0.1397E+00
      4.653  0.8282E-02  0.7810E-02  0.1407E+00  0.1406E+00
      4.770  0.5740E-02  0.5999E-02  0.1414E+00  0.1413E+00
      4.888  0.6395E-02  0.6669E-02  0.1421E+00  0.1421E+00
      5.005  0.5674E-02  0.5625E-02  0.1428E+00  0.1428E+00
      5.122  0.3605E-02  0.3638E-02  0.1432E+00  0.1432E+00
      5.239  0.4413E-02  0.4440E-02  0.1437E+00  0.1437E+00
      5.356  0.4336E-02  0.4428E-02  0.1442E+00  0.1442E+00
      5.473  0.8559E-02  0.8438E-02  0.1452E+00  0.1452E+00
      5.591  0.6354E-02  0.6561E-02  0.1460E+00  0.1460E+00
      5.708  0.3889E-02  0.3705E-02  0.1464E+00  0.1464E+00
      5.825  0.6732E-02  0.6840E-02  0.1472E+00  0.1472E+00
      5.942  0.3475E-02  0.3454E-02  0.1476E+00  0.1476E+00
      6.059  0.7417E-02  0.7477E-02  0.1485E+00  0.1485E+00
      6.176  0.3893E-02  0.3823E-02  0.1490E+00  0.1490E+00
      6.294  0.4854E-02  0.4893E-02  0.1495E+00  0.1495E+00
      6.411  0.5566E-02  0.5512E-02  0.1502E+00  0.1502E+00
      6.528  0.2453E-02  0.2468E-02  0.1505E+00  0.1505E+00
      6.645  0.3382E-02  0.3414E-02  0.1509E+00  0.1509E+00
      6.762  0.1035E-01  0.1033E-01  0.1521E+00  0.1521E+00
      6.879  0.5456E-02  0.5547E-02  0.1527E+00  0.1527E+00
      6.997  0.2977E-02  0.2822E-02  0.1531E+00  0.1531E+00
      7.114  0.7731E-02  0.7822E-02  0.1540E+00  0.1540E+00
      7.231  0.4397E-02  0.4370E-02  0.1545E+00  0.1545E+00
      7.348  0.3549E-02  0.3667E-02  0.1549E+00  0.1549E+00
      7.465  0.4982E-02  0.4977E-02  0.1555E+00  0.1555E+00
      7.582  0.8302E-02  0.8228E-02  0.1565E+00  0.1565E+00
      7.700  0.3908E-02  0.4062E-02  0.1569E+00  0.1569E+00
      7.817  0.7524E-02  0.7611E-02  0.1578E+00  0.1578E+00
      7.934  0.8367E-02  0.8571E-02  0.1588E+00  0.1588E+00
      8.051  0.7225E-02  0.6939E-02  0.1596E+00  0.1597E+00
      8.168  0.4355E-02  0.4296E-02  0.1601E+00  0.1602E+00
      8.285  0.8254E-02  0.8238E-02  0.1611E+00  0.1611E+00
      8.403  0.5635E-02  0.5797E-02  0.1618E+00  0.1618E+00
      8.520  0.1001E-01  0.9815E-02  0.1629E+00  0.1630E+00
      8.637  0.7276E-02  0.7298E-02  0.1638E+00  0.1638E+00
      8.754  0.9110E-02  0.9249E-02  0.1649E+00  0.1649E+00
      8.871  0.1077E-01  0.1078E-01  0.1661E+00  0.1662E+00
      8.988  0.1130E-01  0.1123E-01  0.1674E+00  0.1675E+00
      9.106  0.1133E-01  0.1155E-01  0.1688E+00  0.1688E+00
      9.223  0.1216E-01  0.1181E-01  0.1702E+00  0.1702E+00
      9.340  0.9063E-02  0.9299E-02  0.1713E+00  0.1713E+00
      9.457  0.8291E-02  0.8201E-02  0.1722E+00  0.1723E+00
      9.574  0.8669E-02  0.8874E-02  0.1732E+00  0.1733E+00
      9.692  0.8599E-02  0.8653E-02  0.1743E+00  0.1743E+00
      9.809  0.1029E-01  0.1005E-01  0.1755E+00  0.1755E+00
      9.926  0.8057E-02  0.8217E-02  0.1764E+00  0.1765E+00
     10.043  0.7445E-02  0.7275E-02  0.1773E+00  0.1773E+00
     10.160  0.8051E-02  0.8126E-02  0.1782E+00  0.1783E+00
     10.277  0.7155E-02  0.7268E-02  0.1791E+00  0.1791E+00
     10.395  0.9836E-02  0.9807E-02  0.1802E+00  0.1803E+00
     10.512  0.9228E-02  0.9061E-02  0.1813E+00  0.1813E+00
     10.629  0.1042E-01  0.1040E-01  0.1825E+00  0.1825E+00
     10.746  0.6245E-02  0.6057E-02  0.1832E+00  0.1833E+00
     10.863  0.4506E-02  0.4601E-02  0.1838E+00  0.1838E+00
     10.980  0.1902E-02  0.1775E-02  0.1840E+00  0.1840E+00
     11.098  0.2151E-04  0.1829E-04  0.1840E+00  0.1840E+00
     11.215  0.3236E-10  0.2345E-10  0.1840E+00  0.1840E+00
     11.332  0.0000E+00  0.0000E+00  0.1840E+00  0.1840E+00
     11.449  0.0000E+00  0.0000E+00  0.1840E+00  0.1840E+00
     11.566  0.0000E+00  0.0000E+00  0.1840E+00  0.1840E+00
     11.683  0.0000E+00  0.0000E+00  0.1840E+00  0.1840E+00
     11.801  0.0000E+00  0.0000E+00  0.1840E+00  0.1840E+00
     11.918  0.0000E+00  0.0000E+00  0.1840E+00  0.1840E+00
     12.035  0.0000E+00  0.0000E+00  0.1840E+00  0.1840E+00
     12.152  0.0000E+00  0.0000E+00  0.1840E+00  0.1840E+00
     12.269  0.0000E+00  0.0000E+00  0.1840E+00  0.1840E+00
     12.386  0.0000E+00  0.0000E+00  0.1840E+00  0.1840E+00
     12.504  0.0000E+00  0.0000E+00  0.1840E+00  0.1840E+00
