       N       E                     dE             d eps       ncg     rms          rms(c)
DAV:   1     0.201496509239E+04    0.20150E+04   -0.12524E+05  7360   0.124E+03
DAV:   2    -0.102928468831E+03   -0.21179E+04   -0.19993E+04  8992   0.308E+02
DAV:   3    -0.331988609832E+03   -0.22906E+03   -0.22491E+03  9216   0.104E+02
DAV:   4    -0.337671756948E+03   -0.56831E+01   -0.56283E+01  9032   0.195E+01
DAV:   5    -0.337852476384E+03   -0.18072E+00   -0.18049E+00  9832   0.310E+00    0.648E+01
RMM:   6    -0.240557332436E+03    0.97295E+02   -0.32305E+02  7360   0.381E+01    0.135E+02
RMM:   7    -0.233853481550E+03    0.67039E+01   -0.97525E+00  7465   0.669E+00    0.124E+02
RMM:   8    -0.231069030659E+03    0.27845E+01   -0.17191E+00  7366   0.301E+00    0.927E+01
RMM:   9    -0.232673322058E+03   -0.16043E+01   -0.30603E+01  7381   0.103E+01    0.658E+01
RMM:  10    -0.230720545474E+03    0.19528E+01   -0.61416E+00  7405   0.555E+00    0.537E+01
RMM:  11    -0.240976468696E+03   -0.10256E+02   -0.51852E+00  7368   0.450E+00    0.445E+01
RMM:  12    -0.248123684573E+03   -0.71472E+01   -0.32387E+00  7361   0.414E+00    0.321E+01
RMM:  13    -0.259601540948E+03   -0.11478E+02   -0.45680E+00  7439   0.443E+00    0.290E+01
RMM:  14    -0.269383881682E+03   -0.97823E+01   -0.55353E+00  7379   0.495E+00    0.225E+01
RMM:  15    -0.272982114553E+03   -0.35982E+01   -0.15868E+00  7383   0.263E+00    0.194E+01
RMM:  16    -0.286008244249E+03   -0.13026E+02   -0.88261E+00  7360   0.588E+00    0.139E+01
RMM:  17    -0.295852026532E+03   -0.98438E+01   -0.12512E+01  7360   0.612E+00    0.213E+01
RMM:  18    -0.296375110166E+03   -0.52308E+00   -0.62879E+00  7360   0.490E+00    0.245E+01
RMM:  19    -0.292484480236E+03    0.38906E+01   -0.56494E+00  7360   0.495E+00    0.333E+01
RMM:  20    -0.296334718363E+03   -0.38502E+01   -0.15900E+00  7380   0.238E+00    0.311E+01
RMM:  21    -0.298290310034E+03   -0.19556E+01   -0.11698E+00  7380   0.193E+00    0.288E+01
RMM:  22    -0.300350509841E+03   -0.20602E+01   -0.14649E+00  7364   0.200E+00    0.303E+01
RMM:  23    -0.300983152653E+03   -0.63264E+00   -0.33236E-01  7409   0.120E+00    0.293E+01
RMM:  24    -0.303252586607E+03   -0.22694E+01   -0.18499E+00  7361   0.208E+00    0.258E+01
RMM:  25    -0.305104106701E+03   -0.18515E+01   -0.16358E+00  7361   0.216E+00    0.183E+01
RMM:  26    -0.305493761645E+03   -0.38965E+00   -0.26694E-01  7471   0.866E-01    0.156E+01
RMM:  27    -0.305585786805E+03   -0.92025E-01   -0.64783E-02  7679   0.425E-01    0.138E+01
RMM:  28    -0.305557701243E+03    0.28086E-01   -0.20594E-02  7484   0.261E-01    0.119E+01
RMM:  29    -0.305485512237E+03    0.72189E-01   -0.13127E-01  7376   0.586E-01    0.813E+00
RMM:  30    -0.305457652863E+03    0.27859E-01   -0.24617E-02  7502   0.320E-01    0.658E+00
RMM:  31    -0.305507484862E+03   -0.49832E-01   -0.10030E-01  7361   0.534E-01    0.253E+00
RMM:  32    -0.305566789539E+03   -0.59305E-01   -0.14116E-01  7393   0.650E-01    0.380E+00
RMM:  33    -0.305548582791E+03    0.18207E-01   -0.11894E-02  7278   0.284E-01    0.256E+00
RMM:  34    -0.305558887847E+03   -0.10305E-01   -0.34865E-03  7123   0.105E-01    0.238E+00
RMM:  35    -0.305566091224E+03   -0.72034E-02   -0.30097E-03  7282   0.110E-01    0.153E+00
RMM:  36    -0.305572241895E+03   -0.61507E-02   -0.40460E-03  7362   0.124E-01    0.617E-01
RMM:  37    -0.305585037758E+03   -0.12796E-01   -0.18115E-03  6980   0.882E-02    0.225E-01
RMM:  38    -0.305593041734E+03   -0.80040E-02   -0.10389E-03  6605   0.623E-02    0.479E-01
RMM:  39    -0.305602577083E+03   -0.95353E-02   -0.10062E-03  6417   0.606E-02    0.859E-01
RMM:  40    -0.305605400008E+03   -0.28229E-02   -0.22771E-04  5004   0.277E-02    0.693E-01
RMM:  41    -0.305605734682E+03   -0.33467E-03   -0.19291E-04  4914   0.301E-02    0.498E-01
RMM:  42    -0.305606051372E+03   -0.31669E-03   -0.88094E-05  4721   0.224E-02    0.396E-01
RMM:  43    -0.305606871012E+03   -0.81964E-03   -0.23094E-04  5018   0.322E-02    0.164E-01
RMM:  44    -0.305607427286E+03   -0.55627E-03   -0.66116E-05  4672   0.214E-02    0.106E-01
RMM:  45    -0.305607698839E+03   -0.27155E-03   -0.87358E-05  4744   0.198E-02    0.308E-02
RMM:  46    -0.305607735555E+03   -0.36716E-04   -0.22427E-05  4087   0.145E-02
   1 F= -.31391481E+03 E0= -.31391217E+03  d E =-.313915E+03  mag=     0.1250
       N       E                     dE             d eps       ncg     rms          rms(c)
DAV:   1    -0.306091240914E+03   -0.48354E+00   -0.14400E+01  7968   0.851E+00    0.117E+00
RMM:   2    -0.306106204426E+03   -0.14964E-01   -0.51019E-01  7306   0.141E+00    0.838E-01
RMM:   3    -0.306095226510E+03    0.10978E-01   -0.16555E-02  7303   0.383E-01    0.914E-01
RMM:   4    -0.306095504801E+03   -0.27829E-03   -0.12905E-03  6541   0.673E-02    0.911E-01
RMM:   5    -0.306100265261E+03   -0.47605E-02   -0.30617E-03  6890   0.103E-01    0.107E+00
RMM:   6    -0.306093466875E+03    0.67984E-02   -0.83904E-02  7346   0.467E-01    0.566E-01
RMM:   7    -0.306096677288E+03   -0.32104E-02   -0.57822E-03  7202   0.167E-01    0.660E-01
RMM:   8    -0.306092367246E+03    0.43100E-02   -0.18182E-03  6772   0.764E-02    0.506E-01
RMM:   9    -0.306089106135E+03    0.32611E-02   -0.44400E-03  7062   0.114E-01    0.299E-01
RMM:  10    -0.306088329226E+03    0.77691E-03   -0.22961E-03  6775   0.887E-02    0.164E-01
RMM:  11    -0.306088321272E+03    0.79532E-05   -0.90721E-04  6324   0.561E-02
   2 F= -.31439906E+03 E0= -.31439639E+03  d E =-.484250E+00  mag=     0.1247
       N       E                     dE             d eps       ncg     rms          rms(c)
DAV:   1    -0.306202189138E+03   -0.11386E+00   -0.80770E+00  7816   0.647E+00    0.893E-01
RMM:   2    -0.306206675581E+03   -0.44864E-02   -0.27275E-01  7295   0.107E+00    0.625E-01
RMM:   3    -0.306200151659E+03    0.65239E-02   -0.92641E-03  7191   0.290E-01    0.635E-01
RMM:   4    -0.306198608001E+03    0.15437E-02   -0.16492E-03  6546   0.730E-02    0.489E-01
RMM:   5    -0.306195931074E+03    0.26769E-02   -0.44872E-03  7022   0.114E-01    0.885E-02
RMM:   6    -0.306195886764E+03    0.44310E-04   -0.43740E-04  5582   0.468E-02
   3 F= -.31450933E+03 E0= -.31450663E+03  d E =-.594522E+00  mag=     0.1247
       N       E                     dE             d eps       ncg     rms          rms(c)
DAV:   1    -0.306287053738E+03   -0.91123E-01   -0.76911E+00  7776   0.650E+00    0.663E-01
RMM:   2    -0.306306660071E+03   -0.19606E-01   -0.26925E-01  7248   0.102E+00    0.562E-01
RMM:   3    -0.306303522789E+03    0.31373E-02   -0.62558E-03  7032   0.232E-01    0.567E-01
RMM:   4    -0.306302963961E+03    0.55883E-03   -0.73196E-04  6079   0.540E-02    0.466E-01
RMM:   5    -0.306301993013E+03    0.97095E-03   -0.26560E-03  6889   0.943E-02    0.714E-02
RMM:   6    -0.306301953731E+03    0.39282E-04   -0.26607E-04  5216   0.375E-02
   4 F= -.31461754E+03 E0= -.31461480E+03  d E =-.108207E+00  mag=     0.1247
       N       E                     dE             d eps       ncg     rms          rms(c)
DAV:   1    -0.306302829263E+03   -0.83625E-03   -0.17226E-01  8456   0.979E-01    0.940E-02
RMM:   2    -0.306303330930E+03   -0.50167E-03   -0.61199E-03  6847   0.155E-01    0.826E-02
RMM:   3    -0.306303287197E+03    0.43733E-04   -0.12347E-04  4646   0.352E-02
   5 F= -.31461919E+03 E0= -.31461646E+03  d E =-.109862E+00  mag=     0.1247
       N       E                     dE             d eps       ncg     rms          rms(c)
DAV:   1    -0.306320716370E+03   -0.17385E-01   -0.13022E+00  7712   0.274E+00    0.248E-01
RMM:   2    -0.306323197364E+03   -0.24810E-02   -0.31663E-02  7160   0.387E-01    0.174E-01
RMM:   3    -0.306322923396E+03    0.27397E-03   -0.81988E-04  6439   0.950E-02    0.189E-01
RMM:   4    -0.306322934581E+03   -0.11186E-04   -0.64087E-05  4570   0.182E-02
   6 F= -.31463904E+03 E0= -.31463631E+03  d E =-.198426E-01  mag=     0.1247
       N       E                     dE             d eps       ncg     rms          rms(c)
DAV:   1    -0.306326663764E+03   -0.37404E-02   -0.77151E+00  7536   0.666E+00    0.524E-01
RMM:   2    -0.306341503030E+03   -0.14839E-01   -0.18253E-01  7264   0.934E-01    0.365E-01
RMM:   3    -0.306340283338E+03    0.12197E-02   -0.44592E-03  7129   0.225E-01    0.425E-01
RMM:   4    -0.306340446796E+03   -0.16346E-03   -0.41107E-04  5399   0.374E-02    0.473E-01
RMM:   5    -0.306339830135E+03    0.61666E-03   -0.39175E-03  7124   0.122E-01    0.109E-01
RMM:   6    -0.306339740990E+03    0.89145E-04   -0.10728E-04  4721   0.336E-02
   7 F= -.31465630E+03 E0= -.31465358E+03  d E =-.371072E-01  mag=     0.1247
       N       E                     dE             d eps       ncg     rms          rms(c)
DAV:   1    -0.306339933278E+03   -0.10314E-03   -0.80645E-02  8344   0.681E-01    0.606E-02
RMM:   2    -0.306340083363E+03   -0.15009E-03   -0.19340E-03  6737   0.959E-02    0.331E-02
RMM:   3    -0.306340079563E+03    0.38000E-05   -0.50145E-05  4411   0.241E-02
   8 F= -.31465659E+03 E0= -.31465387E+03  d E =-.374005E-01  mag=     0.1248
       N       E                     dE             d eps       ncg     rms          rms(c)
DAV:   1    -0.306345778932E+03   -0.56956E-02   -0.64817E-01  7656   0.193E+00    0.149E-01
RMM:   2    -0.306347022378E+03   -0.12434E-02   -0.15126E-02  7122   0.268E-01    0.853E-02
RMM:   3    -0.306346912632E+03    0.10975E-03   -0.37297E-04  5464   0.637E-02    0.791E-02
RMM:   4    -0.306346887529E+03    0.25103E-04   -0.83161E-05  4565   0.213E-02
   9 F= -.31466308E+03 E0= -.31466037E+03  d E =-.648881E-02  mag=     0.1248
       N       E                     dE             d eps       ncg     rms          rms(c)
DAV:   1    -0.306348039355E+03   -0.11267E-02   -0.12937E+00  7856   0.272E+00    0.209E-01
RMM:   2    -0.306350324068E+03   -0.22847E-02   -0.29627E-02  7163   0.377E-01    0.120E-01
RMM:   3    -0.306350051170E+03    0.27290E-03   -0.79139E-04  6414   0.923E-02    0.104E-01
RMM:   4    -0.306349947408E+03    0.10376E-03   -0.20241E-04  4939   0.301E-02    0.559E-02
RMM:   5    -0.306349899335E+03    0.48073E-04   -0.16422E-04  4784   0.266E-02
  10 F= -.31466564E+03 E0= -.31466289E+03  d E =-.904499E-02  mag=     0.1252
       N       E                     dE             d eps       ncg     rms          rms(c)
DAV:   1    -0.306349903711E+03    0.43697E-04   -0.23429E-02  8240   0.367E-01    0.275E-02
RMM:   2    -0.306349946345E+03   -0.42634E-04   -0.52670E-04  5533   0.515E-02    0.171E-02
RMM:   3    -0.306349945866E+03    0.47905E-06   -0.18822E-05  4159   0.150E-02
  11 F= -.31466575E+03 E0= -.31466301E+03  d E =-.915237E-02  mag=     0.1253
       N       E                     dE             d eps       ncg     rms          rms(c)
DAV:   1    -0.306351525147E+03   -0.15788E-02   -0.22825E-01  7784   0.116E+00    0.974E-02
RMM:   2    -0.306351918629E+03   -0.39348E-03   -0.61105E-03  7079   0.174E-01    0.588E-02
RMM:   3    -0.306351869288E+03    0.49341E-04   -0.15327E-04  4718   0.434E-02
  12 F= -.31466794E+03 E0= -.31466521E+03  d E =-.219399E-02  mag=     0.1254
       N       E                     dE             d eps       ncg     rms          rms(c)
DAV:   1    -0.306351900625E+03    0.18004E-04   -0.22568E-01  7832   0.115E+00    0.113E-01
RMM:   2    -0.306352182326E+03   -0.28170E-03   -0.58325E-03  7082   0.168E-01    0.793E-02
RMM:   3    -0.306352103650E+03    0.78676E-04   -0.16409E-04  4747   0.407E-02
  13 F= -.31466844E+03 E0= -.31466571E+03  d E =-.269777E-02  mag=     0.1255
       N       E                     dE             d eps       ncg     rms          rms(c)
DAV:   1    -0.306352910463E+03   -0.72814E-03   -0.19288E-01  7752   0.105E+00    0.115E-01
RMM:   2    -0.306353265631E+03   -0.35517E-03   -0.53213E-03  6991   0.154E-01    0.762E-02
RMM:   3    -0.306353214488E+03    0.51143E-04   -0.14918E-04  4711   0.390E-02
  14 F= -.31466967E+03 E0= -.31466695E+03  d E =-.123126E-02  mag=     0.1256
       N       E                     dE             d eps       ncg     rms          rms(c)
DAV:   1    -0.306353151457E+03    0.11417E-03   -0.65743E-02  8272   0.612E-01    0.569E-02
RMM:   2    -0.306353273419E+03   -0.12196E-03   -0.17489E-03  6704   0.886E-02    0.350E-02
RMM:   3    -0.306353263901E+03    0.95186E-05   -0.42236E-05  4366   0.216E-02
  15 F= -.31466980E+03 E0= -.31466707E+03  d E =-.135208E-02  mag=     0.1257
       N       E                     dE             d eps       ncg     rms          rms(c)
DAV:   1    -0.306354041630E+03   -0.76821E-03   -0.84372E-02  7904   0.697E-01    0.642E-02
RMM:   2    -0.306354202109E+03   -0.16048E-03   -0.19864E-03  6848   0.986E-02    0.330E-02
RMM:   3    -0.306354196237E+03    0.58720E-05   -0.48619E-05  4427   0.254E-02
  16 F= -.31467050E+03 E0= -.31466778E+03  d E =-.704706E-03  mag=     0.1256
       N       E                     dE             d eps       ncg     rms          rms(c)
DAV:   1    -0.306354476540E+03   -0.27443E-03   -0.37983E-01  7576   0.148E+00    0.136E-01
RMM:   2    -0.306355206706E+03   -0.73017E-03   -0.89066E-03  7096   0.208E-01    0.689E-02
RMM:   3    -0.306355158000E+03    0.48707E-04   -0.21498E-04  4976   0.505E-02
  17 F= -.31467098E+03 E0= -.31466827E+03  d E =-.118258E-02  mag=     0.1255
       N       E                     dE             d eps       ncg     rms          rms(c)
DAV:   1    -0.306355567041E+03   -0.36034E-03   -0.40570E-02  8376   0.497E-01    0.470E-02
RMM:   2    -0.306355649588E+03   -0.82546E-04   -0.99371E-04  6303   0.714E-02    0.274E-02
RMM:   3    -0.306355647653E+03    0.19345E-05   -0.28940E-05  4343   0.196E-02
  18 F= -.31467137E+03 E0= -.31466866E+03  d E =-.389994E-03  mag=     0.1254
       N       E                     dE             d eps       ncg     rms          rms(c)
DAV:   1    -0.306355770914E+03   -0.12133E-03   -0.31402E-02  8144   0.437E-01    0.385E-02
RMM:   2    -0.306355827246E+03   -0.56331E-04   -0.73519E-04  6002   0.617E-02    0.245E-02
RMM:   3    -0.306355825080E+03    0.21652E-05   -0.23922E-05  4212   0.177E-02
  19 F= -.31467146E+03 E0= -.31466874E+03  d E =-.479692E-03  mag=     0.1255
       N       E                     dE             d eps       ncg     rms          rms(c)
DAV:   1    -0.306356108641E+03   -0.28140E-03   -0.21846E-02  8128   0.356E-01    0.335E-02
RMM:   2    -0.306356143978E+03   -0.35337E-04   -0.49340E-04  5377   0.490E-02    0.226E-02
RMM:   3    -0.306356142425E+03    0.15529E-05   -0.17990E-05  4067   0.147E-02
  20 F= -.31467170E+03 E0= -.31466897E+03  d E =-.245845E-03  mag=     0.1256
       N       E                     dE             d eps       ncg     rms          rms(c)
DAV:   1    -0.306356292588E+03   -0.14861E-03   -0.19621E-01  7568   0.107E+00    0.867E-02
RMM:   2    -0.306356646987E+03   -0.35440E-03   -0.45531E-03  6987   0.147E-01    0.491E-02
RMM:   3    -0.306356616509E+03    0.30478E-04   -0.10154E-04  4515   0.359E-02
  21 F= -.31467196E+03 E0= -.31466920E+03  d E =-.505303E-03  mag=     0.1258
       N       E                     dE             d eps       ncg     rms          rms(c)
DAV:   1    -0.306356846662E+03   -0.19967E-03   -0.64052E-03  8488   0.196E-01    0.258E-02
RMM:   2    -0.306356857692E+03   -0.11030E-04   -0.15731E-04  4442   0.301E-02    0.185E-02
RMM:   3    -0.306356860012E+03   -0.23197E-05   -0.10892E-05  3961   0.117E-02
  22 F= -.31467209E+03 E0= -.31466933E+03  d E =-.126968E-03  mag=     0.1260
