vasp.5.4.1 08Jul2015 (build Apr 24 2014 00:09:29) complex standard with constrain (TS)    
 executed on IBM of Center for Computational Chemistry date 2018.05.05  09:52:58
 running on   24 total cores
 distrk:  each k-point on   24 cores,    1 groups
 distr:  one band on NCORES_PER_BAND=   6 cores,    4 groups


--------------------------------------------------------------------------------------------------------


 INCAR:
 POTCAR:    PAW_PBE H 15Jun2001                   
 POTCAR:    PAW_PBE O 08Apr2002                   
 POTCAR:    PAW_PBE Ge 05Jan2001                  
 POTCAR:    PAW_PBE Ir 06Sep2000                  
 POTCAR:    PAW_PBE H 15Jun2001                   
   VRHFIN =H: ultrasoft test                                                    
   LEXCH  = PE                                                                  
   EATOM  =    12.4884 eV,    0.9179 Ry                                         
                                                                                
   TITEL  = PAW_PBE H 15Jun2001                                                 
   LULTRA =        F    use ultrasoft PP ?                                      
   IUNSCR =        0    unscreen: 0-lin 1-nonlin 2-no                           
   RPACOR =    0.000    partial core radius                                     
   POMASS =    1.000; ZVAL   =    1.000    mass and valenz                      
   RCORE  =    1.100    outmost cutoff radius                                   
   RWIGS  =    0.700; RWIGS  =    0.370    wigner-seitz radius (au A)           
   ENMAX  =  250.000; ENMIN  =  200.000 eV                                      
   RCLOC  =    0.701    cutoff for local pot                                    
   LCOR   =        T    correct aug charges                                     
   LPAW   =        T    paw PP                                                  
   EAUG   =  400.000                                                            
   RMAX   =    1.123    core radius for proj-oper                               
   RAUG   =    1.200    factor for augmentation sphere                          
   RDEP   =    1.112    radius for radial grids                                 
   RDEPT  =    0.926    core radius for aug-charge                              
                                                                                
   Atomic configuration                                                         
    2 entries                                                                   
     n  l   j            E        occ.                                          
     1  0  0.50        -6.4927   1.0000                                         
     2  1  0.50        -3.4015   0.0000                                         
   Description                                                                  
     l       E           TYP  RCUT    TYP  RCUT                                 
     0     -6.4927494     23  1.100                                             
     0      6.8029130     23  1.100                                             
     1     -4.0817478     23  1.100                                             
  local pseudopotential read in
  atomic valenz-charges read in
  non local Contribution for L=           0  read in
    real space projection operators read in
  non local Contribution for L=           0  read in
    real space projection operators read in
  non local Contribution for L=           1  read in
    real space projection operators read in
    PAW grid and wavefunctions read in
 
   number of l-projection  operators is LMAX  =           3
   number of lm-projection operators is LMMAX =           5
 
 POTCAR:    PAW_PBE O 08Apr2002                   
   VRHFIN =O: s2p4                                                              
   LEXCH  = PE                                                                  
   EATOM  =   432.3788 eV,   31.7789 Ry                                         
                                                                                
   TITEL  = PAW_PBE O 08Apr2002                                                 
   LULTRA =        F    use ultrasoft PP ?                                      
   IUNSCR =        1    unscreen: 0-lin 1-nonlin 2-no                           
   RPACOR =    1.200    partial core radius                                     
   POMASS =   16.000; ZVAL   =    6.000    mass and valenz                      
   RCORE  =    1.520    outmost cutoff radius                                   
   RWIGS  =    1.550; RWIGS  =    0.820    wigner-seitz radius (au A)           
   ENMAX  =  400.000; ENMIN  =  300.000 eV                                      
   ICORE  =        2    local potential                                         
   LCOR   =        T    correct aug charges                                     
   LPAW   =        T    paw PP                                                  
   EAUG   =  605.392                                                            
   DEXC   =    0.000                                                            
   RMAX   =    1.553    core radius for proj-oper                               
   RAUG   =    1.300    factor for augmentation sphere                          
   RDEP   =    1.550    radius for radial grids                                 
   RDEPT  =    1.329    core radius for aug-charge                              
                                                                                
   Atomic configuration                                                         
    4 entries                                                                   
     n  l   j            E        occ.                                          
     1  0  0.50      -514.6923   2.0000                                         
     2  0  0.50       -23.9615   2.0000                                         
     2  1  0.50        -9.0305   4.0000                                         
     3  2  1.50        -9.5241   0.0000                                         
   Description                                                                  
     l       E           TYP  RCUT    TYP  RCUT                                 
     0    -23.9615318     23  1.200                                             
     0     -9.5240782     23  1.200                                             
     1     -9.0304911     23  1.520                                             
     1      8.1634956     23  1.520                                             
     2     -9.5240782      7  1.500                                             
  local pseudopotential read in
  partial core-charges read in
  partial kinetic energy density read in
  kinetic energy density of atom read in
  atomic valenz-charges read in
  non local Contribution for L=           0  read in
    real space projection operators read in
  non local Contribution for L=           0  read in
    real space projection operators read in
  non local Contribution for L=           1  read in
    real space projection operators read in
  non local Contribution for L=           1  read in
    real space projection operators read in
    PAW grid and wavefunctions read in
 
   number of l-projection  operators is LMAX  =           4
   number of lm-projection operators is LMMAX =           8
 
 POTCAR:    PAW_PBE Ge 05Jan2001                  
   VRHFIN =Ge: s2p2                                                             
   LEXCH  = PE                                                                  
   EATOM  =   104.9960 eV,    7.7170 Ry                                         
                                                                                
   TITEL  = PAW_PBE Ge 05Jan2001                                                
   LULTRA =        F    use ultrasoft PP ?                                      
   IUNSCR =        1    unscreen: 0-lin 1-nonlin 2-no                           
   RPACOR =    2.170    partial core radius                                     
   POMASS =   72.610; ZVAL   =    4.000    mass and valenz                      
   RCORE  =    2.300    outmost cutoff radius                                   
   RWIGS  =    2.300; RWIGS  =    1.217    wigner-seitz radius (au A)           
   ENMAX  =  173.807; ENMIN  =  130.355 eV                                      
   ICORE  =        3    local potential                                         
   LCOR   =        T    correct aug charges                                     
   LPAW   =        T    paw PP                                                  
   EAUG   =  385.843                                                            
   DEXC   =    0.000                                                            
   RMAX   =    2.342    core radius for proj-oper                               
   RAUG   =    1.300    factor for augmentation sphere                          
   RDEP   =    2.318    radius for radial grids                                 
   RDEPT  =    2.103    core radius for aug-charge                              
                                                                                
   Atomic configuration                                                         
   10 entries                                                                   
     n  l   j            E        occ.                                          
     1  0  0.50    -10959.8463   2.0000                                         
     2  0  0.50     -1371.6056   2.0000                                         
     2  1  1.50     -1198.4791   6.0000                                         
     3  0  0.50      -168.4733   2.0000                                         
     3  1  1.50      -115.6019   6.0000                                         
     3  2  2.50       -29.3106  10.0000                                         
     4  0  0.50       -11.7309   2.0000                                         
     4  1  0.50        -3.8952   2.0000                                         
     4  2  1.50        -4.0817   0.0000                                         
     4  3  2.50        -4.0817   0.0000                                         
   Description                                                                  
     l       E           TYP  RCUT    TYP  RCUT                                 
     0    -11.7309493     23  2.300                                             
     0     -7.4578696     23  2.300                                             
     1     -3.8952261     23  2.300                                             
     1      6.1178114     23  2.300                                             
     2     -4.0817478     23  2.300                                             
     3     -1.3605826      7  2.300                                             
  local pseudopotential read in
  partial core-charges read in
  partial kinetic energy density read in
  atomic valenz-charges read in
  non local Contribution for L=           0  read in
    real space projection operators read in
  non local Contribution for L=           0  read in
    real space projection operators read in
  non local Contribution for L=           1  read in
    real space projection operators read in
  non local Contribution for L=           1  read in
    real space projection operators read in
  non local Contribution for L=           2  read in
    real space projection operators read in
    PAW grid and wavefunctions read in
 
   number of l-projection  operators is LMAX  =           5
   number of lm-projection operators is LMMAX =          13
 
 POTCAR:    PAW_PBE Ir 06Sep2000                  
   VRHFIN =Ir: s1d8                                                             
   LEXCH  = PE                                                                  
   EATOM  =   560.1833 eV,   41.1723 Ry                                         
                                                                                
   TITEL  = PAW_PBE Ir 06Sep2000                                                
   LULTRA =        F    use ultrasoft PP ?                                      
   IUNSCR =        1    unscreen: 0-lin 1-nonlin 2-no                           
   RPACOR =    2.250    partial core radius                                     
   POMASS =  192.220; ZVAL   =    9.000    mass and valenz                      
   RCORE  =    2.600    outmost cutoff radius                                   
   RWIGS  =    2.690; RWIGS  =    1.423    wigner-seitz radius (au A)           
   ENMAX  =  210.864; ENMIN  =  158.148 eV                                      
   RCLOC  =    1.857    cutoff for local pot                                    
   LCOR   =        T    correct aug charges                                     
   LPAW   =        T    paw PP                                                  
   EAUG   =  318.962                                                            
   DEXC   =    0.000                                                            
   RMAX   =    2.667    core radius for proj-oper                               
   RAUG   =    1.300    factor for augmentation sphere                          
   RDEP   =    2.748    radius for radial grids                                 
   RDEPT  =    2.300    core radius for aug-charge                              
                                                                                
   Atomic configuration                                                         
   16 entries                                                                   
     n  l   j            E        occ.                                          
     1  0  0.50    -76100.0449   2.0000                                         
     2  0  0.50    -13308.1683   2.0000                                         
     2  1  1.50    -11558.0021   6.0000                                         
     3  0  0.50     -3110.7274   2.0000                                         
     3  1  1.50     -2599.2109   6.0000                                         
     3  2  2.50     -2037.1515  10.0000                                         
     4  0  0.50      -661.6001   2.0000                                         
     4  1  1.50      -493.8981   6.0000                                         
     4  2  2.50      -288.1909  10.0000                                         
     4  3  3.50       -59.5718  14.0000                                         
     5  0  0.50       -95.3879   2.0000                                         
     5  1  1.50       -52.2747   6.0000                                         
     5  2  2.50        -5.4180   8.0000                                         
     6  0  0.50        -5.5479   1.0000                                         
     6  1  1.50        -6.8029   0.0000                                         
     5  3  2.50        -1.3606   0.0000                                         
   Description                                                                  
     l       E           TYP  RCUT    TYP  RCUT                                 
     2     -5.4179967     23  2.600                                             
     2     -6.7785793     23  2.600                                             
     0     -5.5478636     23  2.600                                             
     0      2.2542272     23  2.600                                             
     1     -2.7211652     23  2.600                                             
     1     20.4087390     23  2.600                                             
  local pseudopotential read in
  partial core-charges read in
  partial kinetic energy density read in
  atomic valenz-charges read in
  non local Contribution for L=           2  read in
    real space projection operators read in
  non local Contribution for L=           2  read in
    real space projection operators read in
  non local Contribution for L=           0  read in
    real space projection operators read in
  non local Contribution for L=           0  read in
    real space projection operators read in
  non local Contribution for L=           1  read in
    real space projection operators read in
  non local Contribution for L=           1  read in
    real space projection operators read in
    PAW grid and wavefunctions read in
 
   number of l-projection  operators is LMAX  =           6
   number of lm-projection operators is LMMAX =          18
 
 Optimization of the real space projectors (new method)

 maximal supplied QI-value         = 34.20
 optimisation between [QCUT,QGAM] = [ 11.29, 22.57] = [ 35.68,142.71] Ry 
 Optimized for a Real-space Cutoff    1.20 Angstroem

   l    n(q)    QCUT    max X(q) W(low)/X(q) W(high)/X(q)  e(spline) 
   0      8    11.287    19.460    0.22E-03    0.50E-03    0.19E-06
   0      8    11.287    12.209    0.21E-03    0.48E-03    0.18E-06
   1      8    11.287     4.655    0.21E-03    0.11E-04    0.26E-06
 Optimization of the real space projectors (new method)

 maximal supplied QI-value         = 24.76
 optimisation between [QCUT,QGAM] = [ 11.39, 22.77] = [ 36.31,145.25] Ry 
 Optimized for a Real-space Cutoff    1.10 Angstroem

   l    n(q)    QCUT    max X(q) W(low)/X(q) W(high)/X(q)  e(spline) 
   0      7    11.387    20.381    0.22E-03    0.48E-03    0.18E-06
   0      7    11.387    15.268    0.22E-03    0.52E-03    0.19E-06
   1      7    11.387     5.964    0.22E-03    0.73E-03    0.24E-06
   1      7    11.387     5.382    0.19E-03    0.60E-03    0.21E-06
 Optimization of the real space projectors (new method)

 maximal supplied QI-value         = 16.25
 optimisation between [QCUT,QGAM] = [ 11.38, 22.75] = [ 36.24,144.96] Ry 
 Optimized for a Real-space Cutoff    1.31 Angstroem

   l    n(q)    QCUT    max X(q) W(low)/X(q) W(high)/X(q)  e(spline) 
   0      9    11.376    65.336    0.20E-03    0.13E-03    0.49E-07
   0      9    11.376    52.220    0.20E-03    0.13E-03    0.49E-07
   1      8    11.376    36.409    0.18E-03    0.14E-03    0.15E-06
   1      8    11.376    21.334    0.18E-03    0.13E-03    0.15E-06
   2      8    11.376     4.673    0.22E-03    0.16E-03    0.38E-07
 Optimization of the real space projectors (new method)

 maximal supplied QI-value         = 14.36
 optimisation between [QCUT,QGAM] = [ 11.35, 22.84] = [ 36.05,146.02] Ry 
 Optimized for a Real-space Cutoff    1.56 Angstroem

   l    n(q)    QCUT    max X(q) W(low)/X(q) W(high)/X(q)  e(spline) 
   2     10    11.346   134.116    0.15E-03    0.19E-03    0.91E-06
   2     10    11.346   130.192    0.15E-03    0.19E-03    0.91E-06
   0     11    11.346    60.310    0.46E-04    0.13E-03    0.93E-06
   0     11    11.346    39.218    0.42E-04    0.12E-03    0.87E-06
   1     10    11.346    18.439    0.15E-03    0.81E-05    0.22E-06
   1     10    11.346    12.760    0.12E-03    0.76E-05    0.17E-06
  PAW_PBE H 15Jun2001                   :
 energy of atom  1       EATOM=  -12.4884
 kinetic energy error for atom=    0.0020 (will be added to EATOM!!)
  PAW_PBE O 08Apr2002                   :
 energy of atom  2       EATOM= -432.3788
 kinetic energy error for atom=    0.0224 (will be added to EATOM!!)
  PAW_PBE Ge 05Jan2001                  :
 energy of atom  3       EATOM= -104.9960
 kinetic energy error for atom=    0.0002 (will be added to EATOM!!)
  PAW_PBE Ir 06Sep2000                  :
 energy of atom  4       EATOM= -560.1833
 kinetic energy error for atom=    0.0018 (will be added to EATOM!!)
 
 
 POSCAR: AutoCreatByScript                       
  positions in direct lattice
  velocities in cartesian coordinates
  No initial velocities read in
 exchange correlation table for  LEXCH =        8
   RHO(1)=    0.500       N(1)  =     2000
   RHO(2)=  100.500       N(2)  =     4000
 


--------------------------------------------------------------------------------------------------------


 ion  position               nearest neighbor table
   1  0.631  0.070  0.592-  33 1.00
   2  0.131  0.570  0.000-  36 1.91  37 1.91
   3  0.631  0.570  0.000-  36 1.91  37 1.91
   4  0.381  0.264  0.056-  34 1.91  35 1.91  36 1.93
   5  0.881  0.264  0.056-  34 1.91  35 1.91  37 1.93
   6  0.381  0.876  0.056-  34 1.91  35 1.91  36 1.93
   7  0.881  0.876  0.056-  34 1.91  35 1.91  37 1.93
   8  0.131  0.570  0.112-  36 1.91  37 1.91  40 1.93
   9  0.631  0.570  0.112-  36 1.91  37 1.91  41 1.93
  10  0.131  0.070  0.144-  38 1.91  39 1.91  34 1.93
  11  0.631  0.070  0.144-  38 1.91  39 1.91  35 1.93
  12  0.381  0.376  0.200-  40 1.91  41 1.91  38 1.93
  13  0.881  0.376  0.200-  40 1.91  41 1.91  39 1.93
  14  0.381  0.764  0.200-  40 1.91  41 1.91  38 1.93
  15  0.881  0.764  0.200-  40 1.91  41 1.91  39 1.93
  16  0.131  0.070  0.256-  38 1.91  39 1.91  42 2.00
  17  0.631  0.070  0.256-  38 1.91  39 1.91  43 2.00
  18  0.131  0.570  0.287-  45 1.88  44 1.88  40 1.91
  19  0.631  0.570  0.288-  44 1.88  45 1.88  41 1.94
  20  0.381  0.266  0.344-  43 1.92  44 1.92  42 1.92
  21  0.880  0.266  0.344-  43 1.92  45 1.92  42 1.92
  22  0.381  0.873  0.344-  43 1.92  44 1.92  42 1.92
  23  0.880  0.873  0.344-  43 1.92  45 1.92  42 1.92
  24  0.131  0.570  0.398-  48 1.85  44 1.90  45 1.90
  25  0.631  0.570  0.400-  49 1.91  45 1.96  44 1.96
  26  0.131  0.070  0.433-  42 1.89  47 2.01  46 2.01
  27  0.631  0.070  0.433-  43 1.89  46 2.02  47 2.02
  28  0.368  0.379  0.495-  48 1.86  46 1.96  49 1.96
  29  0.894  0.379  0.495-  48 1.86  47 1.96  49 1.96
  30  0.368  0.760  0.495-  48 1.86  46 1.96  49 1.96
  31  0.894  0.760  0.495-  48 1.86  47 1.96  49 1.96
  32  0.131  0.070  0.548-  46 1.84  47 1.84
  33  0.631  0.070  0.546-   1 1.00  47 1.84  46 1.84
  34  0.131  0.070  0.056-   4 1.91   5 1.91   6 1.91   7 1.91  10 1.93
  35  0.631  0.070  0.056-   4 1.91   5 1.91   6 1.91   7 1.91  11 1.93
  36  0.381  0.570  0.056-   8 1.91   9 1.91   2 1.91   3 1.91   6 1.93   4 1.93
  37  0.881  0.570  0.056-   8 1.91   9 1.91   2 1.91   3 1.91   7 1.93   5 1.93
  38  0.381  0.070  0.200-  10 1.91  11 1.91  16 1.91  17 1.91  12 1.93  14 1.93
  39  0.881  0.070  0.200-  10 1.91  11 1.91  16 1.91  17 1.91  13 1.93  15 1.93
  40  0.131  0.570  0.200-  18 1.91  15 1.91  14 1.91  13 1.91  12 1.91   8 1.93
  41  0.631  0.570  0.200-  14 1.91  15 1.91  12 1.91  13 1.91   9 1.93  19 1.94
  42  0.131  0.070  0.347-  26 1.89  23 1.92  20 1.92  22 1.92  21 1.92  16 2.00
  43  0.631  0.070  0.347-  27 1.89  21 1.92  23 1.92  22 1.92  20 1.92  17 2.00
  44  0.379  0.570  0.341-  19 1.88  18 1.88  24 1.90  20 1.92  22 1.92  25 1.96  45 2.90
  45  0.883  0.570  0.341-  19 1.88  18 1.88  24 1.90  21 1.92  23 1.92  25 1.96  44 2.90
  46  0.379  0.070  0.496-  33 1.84  32 1.84  28 1.96  30 1.96  26 2.01  27 2.02  47 2.90
  47  0.882  0.070  0.496-  33 1.84  32 1.84  31 1.96  29 1.96  26 2.01  27 2.02  46 2.90
  48  0.131  0.570  0.482-  24 1.85  28 1.86  31 1.86  29 1.86  30 1.86  49 2.92  49 2.93
  49  0.631  0.570  0.487-  25 1.91  29 1.96  31 1.96  30 1.96  28 1.96  48 2.92  48 2.93
 

IMPORTANT INFORMATION: All symmetrisations will be switched off!
NOSYMM: (Re-)initialisation of all symmetry stuff for point group C_1.

 
 
 KPOINTS: mesh auto                               

Automatic generation of k-mesh.
Space group operators:
 irot       det(A)        alpha          n_x          n_y          n_z        tau_x        tau_y        tau_z
    1     1.000000     0.000001     1.000000     0.000000     0.000000     0.000000     0.000000     0.000000
 
 Subroutine IBZKPT returns following result:
 ===========================================
 
 Found     10 irreducible k-points:
 
 Following reciprocal coordinates:
            Coordinates               Weight
  0.000000  0.000000  0.000000      1.000000
  0.250000  0.000000  0.000000      2.000000
  0.500000  0.000000  0.000000      1.000000
  0.000000  0.250000  0.000000      2.000000
  0.250000  0.250000  0.000000      2.000000
  0.500000  0.250000  0.000000      2.000000
 -0.250000  0.250000  0.000000      2.000000
  0.000000  0.500000  0.000000      1.000000
  0.250000  0.500000  0.000000      2.000000
  0.500000  0.500000  0.000000      1.000000
 
 Following cartesian coordinates:
            Coordinates               Weight
  0.000000  0.000000  0.000000      1.000000
  0.000000  0.000000  0.042774      2.000000
  0.000000  0.000000  0.085548      1.000000
  0.027974 -0.027974  0.000000      2.000000
  0.027974 -0.027974  0.042774      2.000000
  0.027974 -0.027974  0.085548      2.000000
  0.027974 -0.027974 -0.042774      2.000000
  0.055947 -0.055947  0.000000      1.000000
  0.055947 -0.055947  0.042774      2.000000
  0.055947 -0.055947  0.085548      1.000000
 


--------------------------------------------------------------------------------------------------------




 Dimension of arrays:
   k-points           NKPTS =     10   k-points in BZ     NKDIM =     10   number of bands    NBANDS=    184
   number of dos      NEDOS =    301   number of ions     NIONS =     49
   non local maximal  LDIM  =      6   non local SUM 2l+1 LMDIM =     18
   total plane-waves  NPLWV = 368640
   max r-space proj   IRMAX =   7346   max aug-charges    IRDMAX=  33108
   dimension x,y,z NGX =    48 NGY =   48 NGZ =  160
   dimension x,y,z NGXF=    96 NGYF=   96 NGZF=  320
   support grid    NGXF=    96 NGYF=   96 NGZF=  320
   ions per type =               1  32  15   1
 NGX,Y,Z   is equivalent  to a cutoff of  13.65, 12.63, 12.13 a.u.
 NGXF,Y,Z  is equivalent  to a cutoff of  27.31, 25.26, 24.26 a.u.


 I would recommend the setting:
   dimension x,y,z NGX =    43 NGY =   46 NGZ =  160
 SYSTEM =  dopGeO2_Ir_Hab_sp2                      
 POSCAR =  AutoCreatByScript                       

 Startparameter for this run:
   NWRITE =      2    write-flag & timer
   PREC   = accura    normal or accurate (medium, high low for compatibility)
   ISTART =      0    job   : 0-new  1-cont  2-samecut
   ICHARG =      2    charge: 1-file 2-atom 10-const
   ISPIN  =      2    spin polarized calculation?
   LNONCOLLINEAR =      F non collinear calculations
   LSORBIT =      F    spin-orbit coupling
   INIWAV =      1    electr: 0-lowe 1-rand  2-diag
   LASPH  =      F    aspherical Exc in radial PAW
   METAGGA=      F    non-selfconsistent MetaGGA calc.

 Electronic Relaxation 1
   ENCUT  =  500.0 eV  36.75 Ry    6.06 a.u.  10.66 11.52 39.98*2*pi/ulx,y,z
   ENINI  =  500.0     initial cutoff
   ENAUG  =  605.4 eV  augmentation charge cutoff
   NELM   =    300;   NELMIN=  3; NELMDL= -5     # of ELM steps 
   EDIFF  = 0.1E-03   stopping-criterion for ELM
   LREAL  =      T    real-space projection
   NLSPLINE    = F    spline interpolate recip. space projectors
   LCOMPAT=      F    compatible to vasp.4.4
   GGA_COMPAT  = T    GGA compatible to vasp.4.4-vasp.4.6
   LMAXPAW     = -100 max onsite density
   LMAXMIX     =    2 max onsite mixed and CHGCAR
   VOSKOWN=      0    Vosko Wilk Nusair interpolation
   ROPT   =   -0.00025  -0.00025  -0.00025  -0.00025
 Ionic relaxation
   EDIFFG = -.5E-01   stopping-criterion for IOM
   NSW    =   1000    number of steps for IOM
   NBLOCK =      1;   KBLOCK =   1000    inner block; outer block 
   IBRION =      2    ionic relax: 0-MD 1-quasi-New 2-CG
   NFREE  =      1    steps in history (QN), initial steepest desc. (CG)
   ISIF   =      2    stress and relaxation
   IWAVPR =     11    prediction:  0-non 1-charg 2-wave 3-comb
   ISYM   =      0    0-nonsym 1-usesym 2-fastsym
   LCORR  =      T    Harris-Foulkes like correction to forces

   POTIM  = 0.1000    time-step for ionic-motion
   TEIN   =    0.0    initial temperature
   TEBEG  =    0.0;   TEEND  =   0.0 temperature during run
   SMASS  =  -3.00    Nose mass-parameter (am)
   estimated Nose-frequenzy (Omega)   =  0.10E-29 period in steps =****** mass=  -0.781E-27a.u.
   SCALEE = 1.0000    scale energy and forces
   NPACO  =    256;   APACO  = 16.0  distance and # of slots for P.C.
   PSTRESS=    0.0 pullay stress

  Mass of Ions in am
   POMASS =   1.00 16.00 72.61192.22
  Ionic Valenz
   ZVAL   =   1.00  6.00  4.00  9.00
  Atomic Wigner-Seitz radii
   RWIGS  =  -1.00 -1.00 -1.00 -1.00
  virtual crystal weights 
   VCA    =   1.00  1.00  1.00  1.00
   NELECT =     262.0000    total number of electrons
   NUPDOWN=      -1.0000    fix difference up-down

 DOS related values:
   EMIN   =  10.00;   EMAX   =-10.00  energy-range for DOS
   EFERMI =   0.00
   ISMEAR =     0;   SIGMA  =   0.05  broadening in eV -4-tet -1-fermi 0-gaus

 Electronic relaxation 2 (details)
   IALGO  =     68    algorithm
   LDIAG  =      T    sub-space diagonalisation (order eigenvalues)
   LSUBROT=      F    optimize rotation matrix (better conditioning)
   TURBO    =      0    0=normal 1=particle mesh
   IRESTART =      0    0=no restart 2=restart with 2 vectors
   NREBOOT  =      0    no. of reboots
   NMIN     =      0    reboot dimension
   EREF     =   0.00    reference energy to select bands
   IMIX   =      4    mixing-type and parameters
     AMIX     =   0.40;   BMIX     =  1.00
     AMIX_MAG =   1.60;   BMIX_MAG =  1.00
     AMIN     =   0.10
     WC   =   100.;   INIMIX=   1;  MIXPRE=   1;  MAXMIX= -45

 Intra band minimization:
   WEIMIN = 0.0010     energy-eigenvalue tresh-hold
   EBREAK =  0.14E-06  absolut break condition
   DEPER  =   0.30     relativ break condition  

   TIME   =   0.40     timestep for ELM

  volume/ion in A,a.u.               =      16.53       111.55
  Fermi-wavevector in a.u.,A,eV,Ry     =   1.123800  2.123675 17.183166  1.262927
  Thomas-Fermi vector in A             =   2.260469
 
 Write flags
   LWAVE  =      F    write WAVECAR
   LCHARG =      F    write CHGCAR
   LVTOT  =      F    write LOCPOT, total local potential
   LVHAR  =      F    write LOCPOT, Hartree potential only
   LELF   =      F    write electronic localiz. function (ELF)
   LORBIT =      0    0 simple, 1 ext, 2 COOP (PROOUT)


 Dipole corrections
   LMONO  =      F    monopole corrections only (constant potential shift)
   LDIPOL =      F    correct potential (dipole corrections)
   IDIPOL =      0    1-x, 2-y, 3-z, 4-all directions 
   EPSILON=  1.0000000 bulk dielectric constant

 Exchange correlation treatment:
   GGA     =    --    GGA type
   LEXCH   =     8    internal setting for exchange type
   VOSKOWN=      0    Vosko Wilk Nusair interpolation
   LHFCALC =     F    Hartree Fock is set to
   LHFONE  =     F    Hartree Fock one center treatment
   AEXX    =    0.0000 exact exchange contribution

 Linear response parameters
   LEPSILON=     F    determine dielectric tensor
   LRPA    =     F    only Hartree local field effects (RPA)
   LNABLA  =     F    use nabla operator in PAW spheres
   LVEL    =     F    velocity operator in full k-point grid
   LINTERFAST=   F  fast interpolation
   KINTER  =     0    interpolate to denser k-point grid
   CSHIFT  =0.1000    complex shift for real part using Kramers Kronig
   OMEGAMAX=  -1.0    maximum frequency
   DEG_THRESHOLD= 0.2000000E-02 threshold for treating states as degnerate
   RTIME   =    0.100 relaxation time in fs

 Orbital magnetization related:
   ORBITALMAG=     F  switch on orbital magnetization
   LCHIMAG   =     F  perturbation theory with respect to B field
   DQ        =  0.001000  dq finite difference perturbation B field



--------------------------------------------------------------------------------------------------------


 conjugate gradient relaxation of ions
   using selective dynamics as specified on POSCAR
 charge density and potential will be updated during run
 spin polarized calculation
 RMM-DIIS sequential band-by-band and
  variant of blocked Davidson during initial phase
 perform sub-space diagonalisation
    before iterative eigenvector-optimisation
 modified Broyden-mixing scheme, WC =      100.0
 initial mixing is a Kerker type mixing with AMIX =  0.4000 and BMIX =      1.0000
 Hartree-type preconditioning will be used
 using additional bands           53
 real space projection scheme for non local part
 use partial core corrections
 calculate Harris-corrections to forces 
   (improved forces if not selfconsistent)
 use gradient corrections 
 use of overlap-Matrix (Vanderbilt PP)
 Gauss-broadening in eV      SIGMA  =   0.05


--------------------------------------------------------------------------------------------------------


  energy-cutoff  :      500.00
  volume of cell :      809.95
      direct lattice vectors                 reciprocal lattice vectors
     0.000000000  0.000000000  5.844679380     0.000000000  0.000000000  0.171095784
     4.468476600 -4.468476600  0.000000000     0.111894958 -0.111894958  0.000000000
    15.506300460 15.506300460  0.000000000     0.032244958  0.032244958  0.000000000

  length of vectors
     5.844679380  6.319380211 21.929220413     0.171095784  0.158243367  0.045601256


 
 k-points in units of 2pi/SCALE and weight: mesh auto                               
   0.00000000  0.00000000  0.00000000       0.062
   0.00000000  0.00000000  0.04277395       0.125
   0.00000000  0.00000000  0.08554789       0.062
   0.02797374 -0.02797374  0.00000000       0.125
   0.02797374 -0.02797374  0.04277395       0.125
   0.02797374 -0.02797374  0.08554789       0.125
   0.02797374 -0.02797374 -0.04277395       0.125
   0.05594748 -0.05594748  0.00000000       0.062
   0.05594748 -0.05594748  0.04277395       0.125
   0.05594748 -0.05594748  0.08554789       0.062
 
 k-points in reciprocal lattice and weights: mesh auto                               
   0.00000000  0.00000000  0.00000000       0.062
   0.25000000  0.00000000  0.00000000       0.125
   0.50000000  0.00000000  0.00000000       0.062
   0.00000000  0.25000000  0.00000000       0.125
   0.25000000  0.25000000  0.00000000       0.125
   0.50000000  0.25000000  0.00000000       0.125
  -0.25000000  0.25000000  0.00000000       0.125
   0.00000000  0.50000000  0.00000000       0.062
   0.25000000  0.50000000  0.00000000       0.125
   0.50000000  0.50000000  0.00000000       0.062
 
 position of ions in fractional coordinates (direct lattice) 
   0.63086345  0.07004145  0.59205392
   0.13081166  0.56969810  0.00000000
   0.63081166  0.56969810  0.00000000
   0.38081166  0.26355810  0.05586496
   0.88081166  0.26355810  0.05586496
   0.38081166  0.87583810  0.05586496
   0.88081166  0.87583810  0.05586496
   0.13081166  0.56969810  0.11172992
   0.63081166  0.56969810  0.11172992
   0.13081166  0.06969810  0.14408584
   0.63081166  0.06969810  0.14408584
   0.38081166  0.37583810  0.19995080
   0.88081166  0.37583810  0.19995080
   0.38081166  0.76355810  0.19995080
   0.88081166  0.76355810  0.19995080
   0.13081166  0.06969810  0.25581576
   0.63081166  0.06969810  0.25581576
   0.13071715  0.56964676  0.28686280
   0.63073812  0.56964014  0.28838734
   0.38107573  0.26598300  0.34360789
   0.88044851  0.26599078  0.34361739
   0.38109789  0.87310486  0.34361061
   0.88044992  0.87311160  0.34361779
   0.13078567  0.56970984  0.39762397
   0.63076781  0.56964553  0.40001068
   0.13075638  0.06975938  0.43308537
   0.63078149  0.06973206  0.43341903
   0.36788306  0.37915356  0.49481918
   0.89399477  0.37920560  0.49484199
   0.36796855  0.76046601  0.49483763
   0.89412900  0.76043525  0.49486663
   0.13089344  0.06993796  0.54778510
   0.63085914  0.06992240  0.54645268
   0.13081166  0.06969810  0.05586496
   0.63081166  0.06969810  0.05586496
   0.38081166  0.56969810  0.05586496
   0.88081166  0.56969810  0.05586496
   0.38081166  0.06969810  0.19995080
   0.88081166  0.06969810  0.19995080
   0.13081166  0.56969810  0.19995080
   0.63081166  0.56969810  0.19995080
   0.13077278  0.06953496  0.34693964
   0.63077284  0.06955335  0.34704099
   0.37856086  0.56952065  0.34130311
   0.88290640  0.56953722  0.34131353
   0.37921435  0.06982921  0.49633010
   0.88249443  0.06975389  0.49633617
   0.13097103  0.56977573  0.48178499
   0.63109853  0.56981433  0.48708492
 
 position of ions in cartesian coordinates  (Angst):
   9.49354462  8.86758745  3.68719461
   2.54568261 -2.54568261  0.76455222
   2.54568261 -2.54568261  3.68689191
   2.04396206 -0.31144431  2.22572207
   2.04396206 -0.31144431  5.14806176
   4.77992091 -3.04740316  2.22572207
   4.77992091 -3.04740316  5.14806176
   4.27820036 -0.81316486  0.76455222
   4.27820036 -0.81316486  3.68689191
   2.54568261  1.92279399  0.76455222
   2.54568261  1.92279399  3.68689191
   4.77992091  1.42107344  2.22572207
   4.77992091  1.42107344  5.14806176
   6.51243866 -0.31144431  2.22572207
   6.51243866 -0.31144431  5.14806176
   4.27820036  3.65531174  0.76455222
   4.27820036  3.65531174  3.68689191
   6.99363393  1.90272754  0.76399985
   7.01724435  1.92639711  3.68646209
   6.51662594  4.13954828  2.22726547
   6.51680807  4.13966094  5.14593923
   9.22957794  1.42668064  2.22739499
   9.22971942  1.42676188  5.14594749
   8.71141181  3.61994164  0.76440033
   8.74813357  3.65723813  3.68663561
   7.02727001  6.40383373  0.76422914
   7.03232173  6.40912961  3.68671558
   9.36705368  5.97857605  2.15015855
   9.36763996  5.97869722  5.22511278
  11.07122545  4.27497634  2.15065821
  11.07153774  4.27556346  5.22589735
   8.80663653  8.18160430  0.76503017
   8.78590605  8.16101286  3.68716938
   1.17770318  0.55481457  0.76455222
   1.17770318  0.55481457  3.68689191
   3.41194148 -1.67942373  2.22572207
   3.41194148 -1.67942373  5.14806176
   3.41194148  2.78905287  2.22572207
   3.41194148  2.78905287  5.14806176
   5.64617978  0.55481457  0.76455222
   5.64617978  0.55481457  3.68689191
   5.69046561  5.06903497  0.76432498
   5.69211940  5.07052439  3.68666500
   7.83723830  2.74745888  2.21256683
   7.83747391  2.74754643  5.16030481
   8.00827388  7.38421350  2.21638629
   8.00803145  7.38464423  5.15789702
  10.01673239  4.92467338  0.76548367
  10.09908716  5.00668316  3.68856858
 


--------------------------------------------------------------------------------------------------------


 k-point  1 :   0.0000 0.0000 0.0000  plane waves:   20573
 k-point  2 :   0.2500 0.0000 0.0000  plane waves:   20577
 k-point  3 :   0.5000 0.0000 0.0000  plane waves:   20562
 k-point  4 :   0.0000 0.2500 0.0000  plane waves:   20575
 k-point  5 :   0.2500 0.2500 0.0000  plane waves:   20562
 k-point  6 :   0.5000 0.2500 0.0000  plane waves:   20574
 k-point  7 :  -0.2500 0.2500 0.0000  plane waves:   20562
 k-point  8 :   0.0000 0.5000 0.0000  plane waves:   20560
 k-point  9 :   0.2500 0.5000 0.0000  plane waves:   20536
 k-point 10 :   0.5000 0.5000 0.0000  plane waves:   20528

 maximum and minimum number of plane-waves per node :      3486     3386

 maximum number of plane-waves:     20577
 maximum index in each direction: 
   IXMAX=   10   IYMAX=   11   IZMAX=   39
   IXMIN=  -11   IYMIN=  -12   IZMIN=  -39

 NGX is ok and might be reduce to  44
 NGY is ok and might be reduce to  48
 NGZ is ok and might be reduce to 158

 real space projection operators:
  total allocation   :      12330.68 KBytes
  max/ min on nodes  :       2092.20       2016.93


 parallel 3D FFT for wavefunctions:
    minimum data exchange during FFTs selected (reduces bandwidth)
 parallel 3D FFT for charge:
    minimum data exchange during FFTs selected (reduces bandwidth)


 total amount of memory used by VASP on root node   113750. kBytes
========================================================================

   base      :      30000. kBytes
   nonlr-proj:       8674. kBytes
   fftplans  :       5963. kBytes
   grid      :      16785. kBytes
   one-center:        279. kBytes
   wavefun   :      52049. kBytes
 
     INWAV:  cpu time    0.0000: real time    0.0000
 Broyden mixing: mesh for mixing (old mesh)
   NGX = 21   NGY = 23   NGZ = 79
  (NGX  = 96   NGY  = 96   NGZ  =320)
  gives a total of  38157 points

 initial charge density was supplied:
 charge density of overlapping atoms calculated
 number of electron     262.0000000 magnetization      49.0000000
 keeping initial charge density in first step


--------------------------------------------------------------------------------------------------------


 Maximum index for non-local projection operator         1153
 Maximum index for augmentation-charges         1530 (set IRDMAX)


--------------------------------------------------------------------------------------------------------


 First call to EWALD:  gamma=   0.190
 Maximum number of real-space cells 4x 4x 1
 Maximum number of reciprocal cells 2x 2x 6

 FEWALD executed in parallel
    FEWALD:  cpu time    0.0020: real time    0.0023


----------------------------------------- Iteration    1(   1)  ---------------------------------------


    POTLOK:  cpu time    0.3329: real time    0.3333
    SETDIJ:  cpu time    0.0460: real time    0.0460
     EDDAV:  cpu time   34.4998: real time   34.5027
       DOS:  cpu time    0.0040: real time    0.0041
    --------------------------------------------
      LOOP:  cpu time   34.8877: real time   34.8956

 eigenvalue-minimisations  :  7360
 total energy-change (2. order) : 0.2014965E+04  (-0.1252383E+05)
 number of electron     262.0000000 magnetization      49.0000000
 augmentation part      262.0000000 magnetization      49.0000000

 Free energy of the ion-electron system (eV)
  ---------------------------------------------------
  alpha Z        PSCENC =       513.34608474
  Ewald energy   TEWEN  =     40762.52406191
  -Hartree energ DENC   =    -55980.99402730
  -exchange      EXHF   =         0.00000000
  -V(xc)+E(xc)   XCENC  =       777.84614778
  PAW double counting   =     12959.03621870   -12758.55066129
  entropy T*S    EENTRO =        -0.00952408
  eigenvalues    EBANDS =      -241.24362738
  atomic energy  EATOM  =     15983.01041930
  Solvation  Ediel_sol  =         0.00000000
  ---------------------------------------------------
  free energy    TOTEN  =      2014.96509239 eV

  energy without entropy =     2014.97461646  energy(sigma->0) =     2014.96985442


--------------------------------------------------------------------------------------------------------




----------------------------------------- Iteration    1(   2)  ---------------------------------------


     EDDAV:  cpu time   40.2789: real time   40.2890
       DOS:  cpu time    0.0040: real time    0.0040
    --------------------------------------------
      LOOP:  cpu time   40.2839: real time   40.2948

 eigenvalue-minimisations  :  8992
 total energy-change (2. order) :-0.2117894E+04  (-0.1999302E+04)
 number of electron     262.0000000 magnetization      49.0000000
 augmentation part      262.0000000 magnetization      49.0000000

 Free energy of the ion-electron system (eV)
  ---------------------------------------------------
  alpha Z        PSCENC =       513.34608474
  Ewald energy   TEWEN  =     40762.52406191
  -Hartree energ DENC   =    -55980.99402730
  -exchange      EXHF   =         0.00000000
  -V(xc)+E(xc)   XCENC  =       777.84614778
  PAW double counting   =     12959.03621870   -12758.55066129
  entropy T*S    EENTRO =        -0.00912191
  eigenvalues    EBANDS =     -2359.13759077
  atomic energy  EATOM  =     15983.01041930
  Solvation  Ediel_sol  =         0.00000000
  ---------------------------------------------------
  free energy    TOTEN  =      -102.92846883 eV

  energy without entropy =     -102.91934692  energy(sigma->0) =     -102.92390788


--------------------------------------------------------------------------------------------------------




----------------------------------------- Iteration    1(   3)  ---------------------------------------


     EDDAV:  cpu time   41.0868: real time   41.0900
       DOS:  cpu time    0.0040: real time    0.0045
    --------------------------------------------
      LOOP:  cpu time   41.0918: real time   41.1072

 eigenvalue-minimisations  :  9216
 total energy-change (2. order) :-0.2290601E+03  (-0.2249130E+03)
 number of electron     262.0000000 magnetization      49.0000000
 augmentation part      262.0000000 magnetization      49.0000000

 Free energy of the ion-electron system (eV)
  ---------------------------------------------------
  alpha Z        PSCENC =       513.34608474
  Ewald energy   TEWEN  =     40762.52406191
  -Hartree energ DENC   =    -55980.99402730
  -exchange      EXHF   =         0.00000000
  -V(xc)+E(xc)   XCENC  =       777.84614778
  PAW double counting   =     12959.03621870   -12758.55066129
  entropy T*S    EENTRO =        -0.00913449
  eigenvalues    EBANDS =     -2588.19771919
  atomic energy  EATOM  =     15983.01041930
  Solvation  Ediel_sol  =         0.00000000
  ---------------------------------------------------
  free energy    TOTEN  =      -331.98860983 eV

  energy without entropy =     -331.97947534  energy(sigma->0) =     -331.98404259


--------------------------------------------------------------------------------------------------------




----------------------------------------- Iteration    1(   4)  ---------------------------------------


     EDDAV:  cpu time   40.4189: real time   40.4224
       DOS:  cpu time    0.0040: real time    0.0043
    --------------------------------------------
      LOOP:  cpu time   40.4249: real time   40.4402

 eigenvalue-minimisations  :  9032
 total energy-change (2. order) :-0.5683147E+01  (-0.5628274E+01)
 number of electron     262.0000000 magnetization      49.0000000
 augmentation part      262.0000000 magnetization      49.0000000

 Free energy of the ion-electron system (eV)
  ---------------------------------------------------
  alpha Z        PSCENC =       513.34608474
  Ewald energy   TEWEN  =     40762.52406191
  -Hartree energ DENC   =    -55980.99402730
  -exchange      EXHF   =         0.00000000
  -V(xc)+E(xc)   XCENC  =       777.84614778
  PAW double counting   =     12959.03621870   -12758.55066129
  entropy T*S    EENTRO =        -0.01031589
  eigenvalues    EBANDS =     -2593.87968490
  atomic energy  EATOM  =     15983.01041930
  Solvation  Ediel_sol  =         0.00000000
  ---------------------------------------------------
  free energy    TOTEN  =      -337.67175695 eV

  energy without entropy =     -337.66144106  energy(sigma->0) =     -337.66659900


--------------------------------------------------------------------------------------------------------




----------------------------------------- Iteration    1(   5)  ---------------------------------------


     EDDAV:  cpu time   43.2554: real time   43.2593
       DOS:  cpu time    0.0050: real time    0.0045
    CHARGE:  cpu time    1.4918: real time    1.4922
    MIXING:  cpu time    0.0060: real time    0.0068
    --------------------------------------------
      LOOP:  cpu time   44.7582: real time   44.7760

 eigenvalue-minimisations  :  9832
 total energy-change (2. order) :-0.1807194E+00  (-0.1804922E+00)
 number of electron     262.0000056 magnetization      43.5073368
 augmentation part       20.3991680 magnetization      40.6661587

 Broyden mixing:
  rms(total) = 0.64783E+01    rms(broyden)= 0.64767E+01
  rms(prec ) = 0.67846E+01
  weight for this iteration     100.00

 Free energy of the ion-electron system (eV)
  ---------------------------------------------------
  alpha Z        PSCENC =       513.34608474
  Ewald energy   TEWEN  =     40762.52406191
  -Hartree energ DENC   =    -55980.99402730
  -exchange      EXHF   =         0.00000000
  -V(xc)+E(xc)   XCENC  =       777.84614778
  PAW double counting   =     12959.03621870   -12758.55066129
  entropy T*S    EENTRO =        -0.01028653
  eigenvalues    EBANDS =     -2594.06043370
  atomic energy  EATOM  =     15983.01041930
  Solvation  Ediel_sol  =         0.00000000
  ---------------------------------------------------
  free energy    TOTEN  =      -337.85247638 eV

  energy without entropy =     -337.84218985  energy(sigma->0) =     -337.84733312


--------------------------------------------------------------------------------------------------------




----------------------------------------- Iteration    1(   6)  ---------------------------------------


    POTLOK:  cpu time    0.3309: real time    0.3313
    SETDIJ:  cpu time    0.0450: real time    0.0451
    EDDIAG:  cpu time    6.2860: real time    6.2869
  RMM-DIIS:  cpu time   22.5436: real time   22.5465
    ORTHCH:  cpu time    0.8989: real time    0.8996
       DOS:  cpu time    0.0050: real time    0.0046
    CHARGE:  cpu time    1.4838: real time    1.4836
    MIXING:  cpu time    0.0070: real time    0.0070
    --------------------------------------------
      LOOP:  cpu time   31.6012: real time   31.6187

 eigenvalue-minimisations  :  7360
 total energy-change (2. order) : 0.9729514E+02  (-0.3230452E+02)
 number of electron     262.0000046 magnetization      43.2193940
 augmentation part       18.5513991 magnetization      39.4925146

 Broyden mixing:
  rms(total) = 0.13493E+02    rms(broyden)= 0.13492E+02
  rms(prec ) = 0.13748E+02
  weight for this iteration     100.00

 eigenvalues of (default mixing * dielectric matrix)
  average eigenvalue GAMMA=   0.1319
  0.1319

 Free energy of the ion-electron system (eV)
  ---------------------------------------------------
  alpha Z        PSCENC =       513.34608474
  Ewald energy   TEWEN  =     40762.52406191
  -Hartree energ DENC   =    -56483.49497537
  -exchange      EXHF   =         0.00000000
  -V(xc)+E(xc)   XCENC  =       853.27596534
  PAW double counting   =     16230.87447180   -16043.92123018
  entropy T*S    EENTRO =        -0.01943023
  eigenvalues    EBANDS =     -2056.15269976
  atomic energy  EATOM  =     15983.01041930
  Solvation  Ediel_sol  =         0.00000000
  ---------------------------------------------------
  free energy    TOTEN  =      -240.55733244 eV

  energy without entropy =     -240.53790221  energy(sigma->0) =     -240.54761732


--------------------------------------------------------------------------------------------------------




----------------------------------------- Iteration    1(   7)  ---------------------------------------


    POTLOK:  cpu time    0.3309: real time    0.3304
    SETDIJ:  cpu time    0.0440: real time    0.0448
    EDDIAG:  cpu time    6.2740: real time    6.2738
  RMM-DIIS:  cpu time   22.7785: real time   22.7809
    ORTHCH:  cpu time    0.8989: real time    0.8986
       DOS:  cpu time    0.0040: real time    0.0046
    CHARGE:  cpu time    1.4928: real time    1.4926
    MIXING:  cpu time    0.0070: real time    0.0071
    --------------------------------------------
      LOOP:  cpu time   31.8302: real time   31.8466

 eigenvalue-minimisations  :  7465
 total energy-change (2. order) : 0.6703851E+01  (-0.9752459E+00)
 number of electron     262.0000045 magnetization      42.7098819
 augmentation part       18.1632655 magnetization      39.0704177

 Broyden mixing:
  rms(total) = 0.12385E+02    rms(broyden)= 0.12385E+02
  rms(prec ) = 0.12598E+02
  weight for this iteration     100.00

 eigenvalues of (default mixing * dielectric matrix)
  average eigenvalue GAMMA=   0.1523
  0.1523  0.1523

 Free energy of the ion-electron system (eV)
  ---------------------------------------------------
  alpha Z        PSCENC =       513.34608474
  Ewald energy   TEWEN  =     40762.52406191
  -Hartree energ DENC   =    -56495.87480893
  -exchange      EXHF   =         0.00000000
  -V(xc)+E(xc)   XCENC  =       853.74159230
  PAW double counting   =     16378.50903015   -16191.62994493
  entropy T*S    EENTRO =        -0.02070905
  eigenvalues    EBANDS =     -2037.45920704
  atomic energy  EATOM  =     15983.01041930
  Solvation  Ediel_sol  =         0.00000000
  ---------------------------------------------------
  free energy    TOTEN  =      -233.85348155 eV

  energy without entropy =     -233.83277250  energy(sigma->0) =     -233.84312702


--------------------------------------------------------------------------------------------------------




----------------------------------------- Iteration    1(   8)  ---------------------------------------


    POTLOK:  cpu time    0.3289: real time    0.3296
    SETDIJ:  cpu time    0.0450: real time    0.0451
    EDDIAG:  cpu time    6.2740: real time    6.2744
  RMM-DIIS:  cpu time   22.5826: real time   22.5850
    ORTHCH:  cpu time    0.8989: real time    0.8991
       DOS:  cpu time    0.0040: real time    0.0044
    CHARGE:  cpu time    1.4928: real time    1.4924
    MIXING:  cpu time    0.0080: real time    0.0078
    --------------------------------------------
      LOOP:  cpu time   31.6362: real time   31.6513

 eigenvalue-minimisations  :  7366
 total energy-change (2. order) : 0.2784451E+01  (-0.1719125E+00)
 number of electron     262.0000046 magnetization      39.4724955
 augmentation part       17.9407216 magnetization      34.4375928

 Broyden mixing:
  rms(total) = 0.92701E+01    rms(broyden)= 0.92700E+01
  rms(prec ) = 0.95025E+01
  weight for this iteration     100.00

 eigenvalues of (default mixing * dielectric matrix)
  average eigenvalue GAMMA=   0.4305
  0.4608  0.4153  0.4153

 Free energy of the ion-electron system (eV)
  ---------------------------------------------------
  alpha Z        PSCENC =       513.34608474
  Ewald energy   TEWEN  =     40762.52406191
  -Hartree energ DENC   =    -56482.38479893
  -exchange      EXHF   =         0.00000000
  -V(xc)+E(xc)   XCENC  =       852.74417075
  PAW double counting   =     16548.06687168   -16361.18609589
  entropy T*S    EENTRO =        -0.01286617
  eigenvalues    EBANDS =     -2047.17687806
  atomic energy  EATOM  =     15983.01041930
  Solvation  Ediel_sol  =         0.00000000
  ---------------------------------------------------
  free energy    TOTEN  =      -231.06903066 eV

  energy without entropy =     -231.05616449  energy(sigma->0) =     -231.06259758


--------------------------------------------------------------------------------------------------------




----------------------------------------- Iteration    1(   9)  ---------------------------------------


    POTLOK:  cpu time    0.3290: real time    0.3291
    SETDIJ:  cpu time    0.0450: real time    0.0450
    EDDIAG:  cpu time    6.2750: real time    6.2759
  RMM-DIIS:  cpu time   22.6486: real time   22.6501
    ORTHCH:  cpu time    0.8979: real time    0.8976
       DOS:  cpu time    0.0040: real time    0.0044
    CHARGE:  cpu time    1.4778: real time    1.4779
    MIXING:  cpu time    0.0070: real time    0.0073
    --------------------------------------------
      LOOP:  cpu time   31.6842: real time   31.7009

 eigenvalue-minimisations  :  7381
 total energy-change (2. order) :-0.1604291E+01  (-0.3060343E+01)
 number of electron     262.0000046 magnetization      36.3194990
 augmentation part       16.6237437 magnetization      33.1706333

 Broyden mixing:
  rms(total) = 0.65810E+01    rms(broyden)= 0.65804E+01
  rms(prec ) = 0.66102E+01
  weight for this iteration     100.00

 eigenvalues of (default mixing * dielectric matrix)
  average eigenvalue GAMMA=   0.4932
  0.8837  0.3618  0.3618  0.3654

 Free energy of the ion-electron system (eV)
  ---------------------------------------------------
  alpha Z        PSCENC =       513.34608474
  Ewald energy   TEWEN  =     40762.52406191
  -Hartree energ DENC   =    -56569.54239921
  -exchange      EXHF   =         0.00000000
  -V(xc)+E(xc)   XCENC  =       844.34067237
  PAW double counting   =     17778.18177663   -17592.16927137
  entropy T*S    EENTRO =        -0.00932951
  eigenvalues    EBANDS =     -1952.35533693
  atomic energy  EATOM  =     15983.01041930
  Solvation  Ediel_sol  =         0.00000000
  ---------------------------------------------------
  free energy    TOTEN  =      -232.67332206 eV

  energy without entropy =     -232.66399255  energy(sigma->0) =     -232.66865731


--------------------------------------------------------------------------------------------------------




----------------------------------------- Iteration    1(  10)  ---------------------------------------


    POTLOK:  cpu time    0.3299: real time    0.3302
    SETDIJ:  cpu time    0.0450: real time    0.0450
    EDDIAG:  cpu time    6.2980: real time    6.2983
  RMM-DIIS:  cpu time   22.8445: real time   22.8464
    ORTHCH:  cpu time    0.8959: real time    0.8964
       DOS:  cpu time    0.0040: real time    0.0045
    CHARGE:  cpu time    1.4818: real time    1.4815
    MIXING:  cpu time    0.0070: real time    0.0075
    --------------------------------------------
      LOOP:  cpu time   31.9081: real time   31.9227

 eigenvalue-minimisations  :  7405
 total energy-change (2. order) : 0.1952777E+01  (-0.6141563E+00)
 number of electron     262.0000046 magnetization      31.9970247
 augmentation part       16.2112971 magnetization      27.9905190

 Broyden mixing:
  rms(total) = 0.53718E+01    rms(broyden)= 0.53718E+01
  rms(prec ) = 0.54193E+01
  weight for this iteration     100.00

 eigenvalues of (default mixing * dielectric matrix)
  average eigenvalue GAMMA=   0.5859
  1.0784  0.3648  0.3648  0.6924  0.4293

 Free energy of the ion-electron system (eV)
  ---------------------------------------------------
  alpha Z        PSCENC =       513.34608474
  Ewald energy   TEWEN  =     40762.52406191
  -Hartree energ DENC   =    -56573.29653969
  -exchange      EXHF   =         0.00000000
  -V(xc)+E(xc)   XCENC  =       845.95647854
  PAW double counting   =     18820.37862089   -18635.66118407
  entropy T*S    EENTRO =        -0.01140757
  eigenvalues    EBANDS =     -1946.96707953
  atomic energy  EATOM  =     15983.01041930
  Solvation  Ediel_sol  =         0.00000000
  ---------------------------------------------------
  free energy    TOTEN  =      -230.72054547 eV

  energy without entropy =     -230.70913790  energy(sigma->0) =     -230.71484169


--------------------------------------------------------------------------------------------------------




----------------------------------------- Iteration    1(  11)  ---------------------------------------


    POTLOK:  cpu time    0.3280: real time    0.3287
    SETDIJ:  cpu time    0.0450: real time    0.0452
    EDDIAG:  cpu time    6.3310: real time    6.3312
  RMM-DIIS:  cpu time   22.7175: real time   22.7197
    ORTHCH:  cpu time    0.8979: real time    0.8977
       DOS:  cpu time    0.0040: real time    0.0039
    CHARGE:  cpu time    1.5238: real time    1.5239
    MIXING:  cpu time    0.0080: real time    0.0077
    --------------------------------------------
      LOOP:  cpu time   31.8562: real time   31.8717

 eigenvalue-minimisations  :  7368
 total energy-change (2. order) :-0.1025592E+02  (-0.5185198E+00)
 number of electron     262.0000045 magnetization      27.6040432
 augmentation part       16.6822446 magnetization      23.3451364

 Broyden mixing:
  rms(total) = 0.44485E+01    rms(broyden)= 0.44475E+01
  rms(prec ) = 0.45800E+01
  weight for this iteration     100.00

 eigenvalues of (default mixing * dielectric matrix)
  average eigenvalue GAMMA=   0.6258
  1.2581  1.0754  0.3722  0.3722  0.3384  0.3384

 Free energy of the ion-electron system (eV)
  ---------------------------------------------------
  alpha Z        PSCENC =       513.34608474
  Ewald energy   TEWEN  =     40762.52406191
  -Hartree energ DENC   =    -56580.87254224
  -exchange      EXHF   =         0.00000000
  -V(xc)+E(xc)   XCENC  =       843.87948822
  PAW double counting   =     20015.93310812   -19832.66086446
  entropy T*S    EENTRO =        -0.00326154
  eigenvalues    EBANDS =     -1946.13296275
  atomic energy  EATOM  =     15983.01041930
  Solvation  Ediel_sol  =         0.00000000
  ---------------------------------------------------
  free energy    TOTEN  =      -240.97646870 eV

  energy without entropy =     -240.97320716  energy(sigma->0) =     -240.97483793


--------------------------------------------------------------------------------------------------------




----------------------------------------- Iteration    1(  12)  ---------------------------------------


    POTLOK:  cpu time    0.3289: real time    0.3293
    SETDIJ:  cpu time    0.0460: real time    0.0454
    EDDIAG:  cpu time    6.3230: real time    6.3235
  RMM-DIIS:  cpu time   22.7265: real time   22.7286
    ORTHCH:  cpu time    0.8989: real time    0.8991
       DOS:  cpu time    0.0040: real time    0.0044
    CHARGE:  cpu time    1.5188: real time    1.5186
    MIXING:  cpu time    0.0080: real time    0.0081
    --------------------------------------------
      LOOP:  cpu time   31.8542: real time   31.8703

 eigenvalue-minimisations  :  7361
 total energy-change (2. order) :-0.7147216E+01  (-0.3238676E+00)
 number of electron     262.0000045 magnetization      24.7014423
 augmentation part       16.6904205 magnetization      20.1082092

 Broyden mixing:
  rms(total) = 0.32072E+01    rms(broyden)= 0.32071E+01
  rms(prec ) = 0.33039E+01
  weight for this iteration     100.00

 eigenvalues of (default mixing * dielectric matrix)
  average eigenvalue GAMMA=   0.6914
  1.4413  1.2523  0.3744  0.3744  0.5307  0.4333  0.4333

 Free energy of the ion-electron system (eV)
  ---------------------------------------------------
  alpha Z        PSCENC =       513.34608474
  Ewald energy   TEWEN  =     40762.52406191
  -Hartree energ DENC   =    -56611.64580696
  -exchange      EXHF   =         0.00000000
  -V(xc)+E(xc)   XCENC  =       839.59452003
  PAW double counting   =     20912.58945685   -20730.00486951
  entropy T*S    EENTRO =        -0.00344253
  eigenvalues    EBANDS =     -1917.53410839
  atomic energy  EATOM  =     15983.01041930
  Solvation  Ediel_sol  =         0.00000000
  ---------------------------------------------------
  free energy    TOTEN  =      -248.12368457 eV

  energy without entropy =     -248.12024204  energy(sigma->0) =     -248.12196331


--------------------------------------------------------------------------------------------------------




----------------------------------------- Iteration    1(  13)  ---------------------------------------


    POTLOK:  cpu time    0.3299: real time    0.3293
    SETDIJ:  cpu time    0.0450: real time    0.0456
    EDDIAG:  cpu time    6.3290: real time    6.3294
  RMM-DIIS:  cpu time   22.9325: real time   22.9346
    ORTHCH:  cpu time    0.8979: real time    0.8979
       DOS:  cpu time    0.0050: real time    0.0045
    CHARGE:  cpu time    1.5268: real time    1.5270
    MIXING:  cpu time    0.0080: real time    0.0083
    --------------------------------------------
      LOOP:  cpu time   32.0741: real time   32.0909

 eigenvalue-minimisations  :  7439
 total energy-change (2. order) :-0.1147786E+02  (-0.4568043E+00)
 number of electron     262.0000046 magnetization      22.8554141
 augmentation part       15.8994605 magnetization      18.4449520

 Broyden mixing:
  rms(total) = 0.28999E+01    rms(broyden)= 0.28983E+01
  rms(prec ) = 0.30502E+01
  weight for this iteration     100.00

 eigenvalues of (default mixing * dielectric matrix)
  average eigenvalue GAMMA=   0.6820
  1.3311  1.3311  0.3717  0.3717  0.5926  0.5926  0.4326  0.4326

 Free energy of the ion-electron system (eV)
  ---------------------------------------------------
  alpha Z        PSCENC =       513.34608474
  Ewald energy   TEWEN  =     40762.52406191
  -Hartree energ DENC   =    -56643.22414021
  -exchange      EXHF   =         0.00000000
  -V(xc)+E(xc)   XCENC  =       834.58073926
  PAW double counting   =     21190.90858592   -21008.49317507
  entropy T*S    EENTRO =        -0.00965552
  eigenvalues    EBANDS =     -1892.24446128
  atomic energy  EATOM  =     15983.01041930
  Solvation  Ediel_sol  =         0.00000000
  ---------------------------------------------------
  free energy    TOTEN  =      -259.60154095 eV

  energy without entropy =     -259.59188543  energy(sigma->0) =     -259.59671319


--------------------------------------------------------------------------------------------------------




----------------------------------------- Iteration    1(  14)  ---------------------------------------


    POTLOK:  cpu time    0.3299: real time    0.3304
    SETDIJ:  cpu time    0.0450: real time    0.0451
    EDDIAG:  cpu time    6.3250: real time    6.3254
  RMM-DIIS:  cpu time   22.8515: real time   22.8543
    ORTHCH:  cpu time    0.8979: real time    0.8977
       DOS:  cpu time    0.0040: real time    0.0046
    CHARGE:  cpu time    1.5238: real time    1.5238
    MIXING:  cpu time    0.0090: real time    0.0084
    --------------------------------------------
      LOOP:  cpu time   31.9861: real time   32.0024

 eigenvalue-minimisations  :  7379
 total energy-change (2. order) :-0.9782341E+01  (-0.5535296E+00)
 number of electron     262.0000046 magnetization      21.1218301
 augmentation part       16.7057439 magnetization      19.6051064

 Broyden mixing:
  rms(total) = 0.22457E+01    rms(broyden)= 0.22455E+01
  rms(prec ) = 0.22579E+01
  weight for this iteration     100.00

 eigenvalues of (default mixing * dielectric matrix)
  average eigenvalue GAMMA=   0.6421
  1.3076  1.3076  0.3710  0.3710  0.6299  0.6299  0.4564  0.4564  0.2488

 Free energy of the ion-electron system (eV)
  ---------------------------------------------------
  alpha Z        PSCENC =       513.34608474
  Ewald energy   TEWEN  =     40762.52406191
  -Hartree energ DENC   =    -56645.05253107
  -exchange      EXHF   =         0.00000000
  -V(xc)+E(xc)   XCENC  =       829.61605875
  PAW double counting   =     21224.45864809   -21042.13115401
  entropy T*S    EENTRO =        -0.01080122
  eigenvalues    EBANDS =     -1895.14466817
  atomic energy  EATOM  =     15983.01041930
  Solvation  Ediel_sol  =         0.00000000
  ---------------------------------------------------
  free energy    TOTEN  =      -269.38388168 eV

  energy without entropy =     -269.37308046  energy(sigma->0) =     -269.37848107


--------------------------------------------------------------------------------------------------------




----------------------------------------- Iteration    1(  15)  ---------------------------------------


    POTLOK:  cpu time    0.3290: real time    0.3290
    SETDIJ:  cpu time    0.0450: real time    0.0451
    EDDIAG:  cpu time    6.3270: real time    6.3272
  RMM-DIIS:  cpu time   22.7805: real time   22.7825
    ORTHCH:  cpu time    0.8959: real time    0.8962
       DOS:  cpu time    0.0040: real time    0.0044
    CHARGE:  cpu time    1.5208: real time    1.5219
    MIXING:  cpu time    0.0090: real time    0.0087
    --------------------------------------------
      LOOP:  cpu time   31.9121: real time   31.9286

 eigenvalue-minimisations  :  7383
 total energy-change (2. order) :-0.3598233E+01  (-0.1586788E+00)
 number of electron     262.0000045 magnetization      16.4237029
 augmentation part       16.6311589 magnetization      15.1778166

 Broyden mixing:
  rms(total) = 0.19382E+01    rms(broyden)= 0.19382E+01
  rms(prec ) = 0.19473E+01
  weight for this iteration     100.00

 eigenvalues of (default mixing * dielectric matrix)
  average eigenvalue GAMMA=   0.7728
  1.7017  1.7017  0.8025  0.8025  0.3723  0.3723  0.7252  0.4525  0.3989  0.3989

 Free energy of the ion-electron system (eV)
  ---------------------------------------------------
  alpha Z        PSCENC =       513.34608474
  Ewald energy   TEWEN  =     40762.52406191
  -Hartree energ DENC   =    -56647.87701899
  -exchange      EXHF   =         0.00000000
  -V(xc)+E(xc)   XCENC  =       828.36834559
  PAW double counting   =     21358.55426147   -21176.39991513
  entropy T*S    EENTRO =        -0.00897561
  eigenvalues    EBANDS =     -1894.49937782
  atomic energy  EATOM  =     15983.01041930
  Solvation  Ediel_sol  =         0.00000000
  ---------------------------------------------------
  free energy    TOTEN  =      -272.98211455 eV

  energy without entropy =     -272.97313894  energy(sigma->0) =     -272.97762675


--------------------------------------------------------------------------------------------------------




----------------------------------------- Iteration    1(  16)  ---------------------------------------


    POTLOK:  cpu time    0.3290: real time    0.3285
    SETDIJ:  cpu time    0.0450: real time    0.0452
    EDDIAG:  cpu time    6.3220: real time    6.3221
  RMM-DIIS:  cpu time   22.7115: real time   22.7136
    ORTHCH:  cpu time    0.8959: real time    0.8966
       DOS:  cpu time    0.0040: real time    0.0048
    CHARGE:  cpu time    1.4868: real time    1.4870
    MIXING:  cpu time    0.0100: real time    0.0092
    --------------------------------------------
      LOOP:  cpu time   31.8062: real time   31.8206

 eigenvalue-minimisations  :  7360
 total energy-change (2. order) :-0.1302613E+02  (-0.8826136E+00)
 number of electron     262.0000044 magnetization      10.7980116
 augmentation part       16.4748098 magnetization       9.9661973

 Broyden mixing:
  rms(total) = 0.13890E+01    rms(broyden)= 0.13876E+01
  rms(prec ) = 0.16503E+01
  weight for this iteration     100.00

 eigenvalues of (default mixing * dielectric matrix)
  average eigenvalue GAMMA=   0.8335
  2.2682  2.2682  0.8138  0.8138  0.3722  0.3722  0.6617  0.4151  0.4151  0.4599
  0.3084

 Free energy of the ion-electron system (eV)
  ---------------------------------------------------
  alpha Z        PSCENC =       513.34608474
  Ewald energy   TEWEN  =     40762.52406191
  -Hartree energ DENC   =    -56646.65595463
  -exchange      EXHF   =         0.00000000
  -V(xc)+E(xc)   XCENC  =       822.87931278
  PAW double counting   =     21360.73013198   -21178.17066482
  entropy T*S    EENTRO =        -0.02480375
  eigenvalues    EBANDS =     -1903.64683177
  atomic energy  EATOM  =     15983.01041930
  Solvation  Ediel_sol  =         0.00000000
  ---------------------------------------------------
  free energy    TOTEN  =      -286.00824425 eV

  energy without entropy =     -285.98344050  energy(sigma->0) =     -285.99584237


--------------------------------------------------------------------------------------------------------




----------------------------------------- Iteration    1(  17)  ---------------------------------------


    POTLOK:  cpu time    0.3290: real time    0.3294
    SETDIJ:  cpu time    0.0450: real time    0.0449
    EDDIAG:  cpu time    6.3220: real time    6.3223
  RMM-DIIS:  cpu time   22.6926: real time   22.6997
    ORTHCH:  cpu time    0.8979: real time    0.8976
       DOS:  cpu time    0.0040: real time    0.0041
    CHARGE:  cpu time    1.5228: real time    1.5227
    MIXING:  cpu time    0.0190: real time    0.0189
    --------------------------------------------
      LOOP:  cpu time   31.8332: real time   31.8538

 eigenvalue-minimisations  :  7360
 total energy-change (2. order) :-0.9843782E+01  (-0.1251241E+01)
 number of electron     262.0000044 magnetization       6.8425518
 augmentation part       16.4102813 magnetization       7.7578744

 Broyden mixing:
  rms(total) = 0.21317E+01    rms(broyden)= 0.21310E+01
  rms(prec ) = 0.24052E+01
  weight for this iteration     100.00

 eigenvalues of (default mixing * dielectric matrix)
  average eigenvalue GAMMA=   0.8687
  2.5254  2.5254  0.8693  0.8693  0.3722  0.3722  0.6687  0.5000  0.5000  0.4570
  0.3826  0.3826

 Free energy of the ion-electron system (eV)
  ---------------------------------------------------
  alpha Z        PSCENC =       513.34608474
  Ewald energy   TEWEN  =     40762.52406191
  -Hartree energ DENC   =    -56664.94898609
  -exchange      EXHF   =         0.00000000
  -V(xc)+E(xc)   XCENC  =       820.55027100
  PAW double counting   =     21528.06046631   -21345.16115324
  entropy T*S    EENTRO =        -0.00299589
  eigenvalues    EBANDS =     -1893.23019456
  atomic energy  EATOM  =     15983.01041930
  Solvation  Ediel_sol  =         0.00000000
  ---------------------------------------------------
  free energy    TOTEN  =      -295.85202653 eV

  energy without entropy =     -295.84903064  energy(sigma->0) =     -295.85052859


--------------------------------------------------------------------------------------------------------




----------------------------------------- Iteration    1(  18)  ---------------------------------------


    POTLOK:  cpu time    0.2730: real time    0.3624
    SETDIJ:  cpu time    0.0560: real time    0.0561
    EDDIAG:  cpu time    6.8620: real time    6.8631
  RMM-DIIS:  cpu time   22.8025: real time   22.8047
    ORTHCH:  cpu time    0.8989: real time    0.8985
       DOS:  cpu time    0.0050: real time    0.0045
    CHARGE:  cpu time    1.4778: real time    1.4779
    MIXING:  cpu time    0.0090: real time    0.0096
    --------------------------------------------
      LOOP:  cpu time   32.3841: real time   32.4896

 eigenvalue-minimisations  :  7360
 total energy-change (2. order) :-0.5230836E+00  (-0.6287854E+00)
 number of electron     262.0000044 magnetization       2.8207912
 augmentation part       16.0956978 magnetization       3.8185097

 Broyden mixing:
  rms(total) = 0.24539E+01    rms(broyden)= 0.24539E+01
  rms(prec ) = 0.25903E+01
  weight for this iteration     100.00

 eigenvalues of (default mixing * dielectric matrix)
  average eigenvalue GAMMA=   0.9674
  3.2324  3.2324  0.9372  0.7509  0.7509  0.3722  0.3722  0.6695  0.5176  0.5176
  0.4331  0.3951  0.3951

 Free energy of the ion-electron system (eV)
  ---------------------------------------------------
  alpha Z        PSCENC =       513.34608474
  Ewald energy   TEWEN  =     40762.52406191
  -Hartree energ DENC   =    -56682.04793179
  -exchange      EXHF   =         0.00000000
  -V(xc)+E(xc)   XCENC  =       821.00323875
  PAW double counting   =     21645.83053321   -21462.88656121
  entropy T*S    EENTRO =        -0.00495755
  eigenvalues    EBANDS =     -1877.14999752
  atomic energy  EATOM  =     15983.01041930
  Solvation  Ediel_sol  =         0.00000000
  ---------------------------------------------------
  free energy    TOTEN  =      -296.37511017 eV

  energy without entropy =     -296.37015261  energy(sigma->0) =     -296.37263139


--------------------------------------------------------------------------------------------------------




----------------------------------------- Iteration    1(  19)  ---------------------------------------


    POTLOK:  cpu time    0.3299: real time    0.3301
    SETDIJ:  cpu time    0.0460: real time    0.0450
    EDDIAG:  cpu time    6.3230: real time    6.3240
  RMM-DIIS:  cpu time   22.7205: real time   22.7225
    ORTHCH:  cpu time    0.8969: real time    0.8970
       DOS:  cpu time    0.0040: real time    0.0044
    CHARGE:  cpu time    1.4808: real time    1.4806
    MIXING:  cpu time    0.0100: real time    0.0099
    --------------------------------------------
      LOOP:  cpu time   31.8122: real time   31.8268

 eigenvalue-minimisations  :  7360
 total energy-change (2. order) : 0.3890630E+01  (-0.5649372E+00)
 number of electron     262.0000044 magnetization       1.7537167
 augmentation part       16.1826143 magnetization       2.8087876

 Broyden mixing:
  rms(total) = 0.33306E+01    rms(broyden)= 0.33306E+01
  rms(prec ) = 0.34237E+01
  weight for this iteration     100.00

 eigenvalues of (default mixing * dielectric matrix)
  average eigenvalue GAMMA=   1.0572
  5.5281  2.1846  1.0988  0.8918  0.8918  0.3722  0.3722  0.6181  0.6181  0.5067
  0.5067  0.4328  0.3895  0.3895

 Free energy of the ion-electron system (eV)
  ---------------------------------------------------
  alpha Z        PSCENC =       513.34608474
  Ewald energy   TEWEN  =     40762.52406191
  -Hartree energ DENC   =    -56705.25320008
  -exchange      EXHF   =         0.00000000
  -V(xc)+E(xc)   XCENC  =       823.22585678
  PAW double counting   =     21463.47797782   -21280.13767193
  entropy T*S    EENTRO =        -0.00423752
  eigenvalues    EBANDS =     -1852.67377126
  atomic energy  EATOM  =     15983.01041930
  Solvation  Ediel_sol  =         0.00000000
  ---------------------------------------------------
  free energy    TOTEN  =      -292.48448024 eV

  energy without entropy =     -292.48024272  energy(sigma->0) =     -292.48236148


--------------------------------------------------------------------------------------------------------




----------------------------------------- Iteration    1(  20)  ---------------------------------------


    POTLOK:  cpu time    0.3299: real time    0.3302
    SETDIJ:  cpu time    0.0450: real time    0.0449
    EDDIAG:  cpu time    6.3200: real time    6.3211
  RMM-DIIS:  cpu time   22.7475: real time   22.7487
    ORTHCH:  cpu time    0.8969: real time    0.8971
       DOS:  cpu time    0.0040: real time    0.0041
    CHARGE:  cpu time    1.4868: real time    1.4871
    MIXING:  cpu time    0.0110: real time    0.0106
    --------------------------------------------
      LOOP:  cpu time   31.8422: real time   31.8567

 eigenvalue-minimisations  :  7380
 total energy-change (2. order) :-0.3850238E+01  (-0.1589958E+00)
 number of electron     262.0000044 magnetization       1.1779715
 augmentation part       16.2430176 magnetization       2.3585809

 Broyden mixing:
  rms(total) = 0.31148E+01    rms(broyden)= 0.31147E+01
  rms(prec ) = 0.31887E+01
  weight for this iteration     100.00

 eigenvalues of (default mixing * dielectric matrix)
  average eigenvalue GAMMA=   1.0456
  5.8101  2.1440  0.9797  0.9797  1.0065  0.3722  0.3722  0.5606  0.5606  0.5996
  0.5389  0.5389  0.4366  0.3918  0.3918

 Free energy of the ion-electron system (eV)
  ---------------------------------------------------
  alpha Z        PSCENC =       513.34608474
  Ewald energy   TEWEN  =     40762.52406191
  -Hartree energ DENC   =    -56725.21922197
  -exchange      EXHF   =         0.00000000
  -V(xc)+E(xc)   XCENC  =       820.02025985
  PAW double counting   =     21566.82661700   -21383.78311090
  entropy T*S    EENTRO =        -0.00641959
  eigenvalues    EBANDS =     -1833.05340869
  atomic energy  EATOM  =     15983.01041930
  Solvation  Ediel_sol  =         0.00000000
  ---------------------------------------------------
  free energy    TOTEN  =      -296.33471836 eV

  energy without entropy =     -296.32829877  energy(sigma->0) =     -296.33150857


--------------------------------------------------------------------------------------------------------




----------------------------------------- Iteration    1(  21)  ---------------------------------------


    POTLOK:  cpu time    0.3289: real time    0.3289
    SETDIJ:  cpu time    0.0450: real time    0.0454
    EDDIAG:  cpu time    6.3300: real time    6.3302
  RMM-DIIS:  cpu time   22.7785: real time   22.7804
    ORTHCH:  cpu time    0.8989: real time    0.8988
       DOS:  cpu time    0.0040: real time    0.0043
    CHARGE:  cpu time    1.5108: real time    1.5107
    MIXING:  cpu time    0.0110: real time    0.0107
    --------------------------------------------
      LOOP:  cpu time   31.9071: real time   31.9229

 eigenvalue-minimisations  :  7380
 total energy-change (2. order) :-0.1955592E+01  (-0.1169803E+00)
 number of electron     262.0000044 magnetization       0.2783099
 augmentation part       16.3409684 magnetization       1.5024963

 Broyden mixing:
  rms(total) = 0.28760E+01    rms(broyden)= 0.28759E+01
  rms(prec ) = 0.29372E+01
  weight for this iteration     100.00

 eigenvalues of (default mixing * dielectric matrix)
  average eigenvalue GAMMA=   1.0878
  6.4224  2.1146  1.1424  1.1424  0.7989  0.7989  0.9012  0.3722  0.3722  0.5017
  0.5017  0.6451  0.3907  0.3907  0.4878  0.4225

 Free energy of the ion-electron system (eV)
  ---------------------------------------------------
  alpha Z        PSCENC =       513.34608474
  Ewald energy   TEWEN  =     40762.52406191
  -Hartree energ DENC   =    -56723.54798415
[...]
    135       3.8816      0.00000
    136       3.8890      0.00000
    137       4.0250      0.00000
    138       4.4213      0.00000
    139       4.5575      0.00000
    140       4.5668      0.00000
    141       4.9650      0.00000
    142       5.2310      0.00000
    143       5.2542      0.00000
    144       5.2737      0.00000
    145       5.4522      0.00000
    146       5.7275      0.00000
    147       6.1688      0.00000
    148       6.1911      0.00000
    149       6.1961      0.00000
    150       6.6705      0.00000
    151       6.6748      0.00000
    152       6.7054      0.00000
    153       7.0277      0.00000
    154       7.7108      0.00000
    155       7.9049      0.00000
    156       8.0487      0.00000
    157       8.2544      0.00000
    158       8.3064      0.00000
    159       8.3603      0.00000
    160       8.3623      0.00000
    161       8.4336      0.00000
    162       8.5399      0.00000
    163       8.5973      0.00000
    164       8.6057      0.00000
    165       8.7863      0.00000
    166       8.8730      0.00000
    167       8.9167      0.00000
    168       8.9433      0.00000
    169       8.9752      0.00000
    170       9.0185      0.00000
    171       9.0349      0.00000
    172       9.0807      0.00000
    173       9.1825      0.00000
    174       9.2070      0.00000
    175       9.3191      0.00000
    176       9.3702      0.00000
    177       9.3711      0.00000
    178       9.4983      0.00000
    179       9.5194      0.00000
    180       9.7201      0.00000
    181       9.7771      0.00000
    182       9.8593      0.00000
    183       9.9130      0.00000
    184       9.9706      0.00000


--------------------------------------------------------------------------------------------------------


 soft charge-density along one line, spin component           1
         0         1         2         3         4         5         6         7         8         9
 total charge-density along one line
 
 soft charge-density along one line, spin component           2
         0         1         2         3         4         5         6         7         8         9
 total charge-density along one line
 
 pseudopotential strength for first ion, spin component:           1
 -2.318  -3.991   0.002   0.000   0.002
 -3.991  -6.785   0.006   0.000   0.006
  0.002   0.006  -0.334   0.000   0.005
  0.000   0.000   0.000  -0.339   0.000
  0.002   0.006   0.005   0.000  -0.334
 pseudopotential strength for first ion, spin component:           2
 -2.318  -3.991   0.002   0.000   0.002
 -3.991  -6.785   0.006   0.000   0.006
  0.002   0.006  -0.334   0.000   0.005
  0.000   0.000   0.000  -0.339   0.000
  0.002   0.006   0.005   0.000  -0.334
 total augmentation occupancy for first ion, spin component:           1
  3.746  -0.808  -0.513  -0.000  -0.514
 -0.808   0.218   0.107   0.000   0.107
 -0.513   0.107   0.089  -0.000   0.053
 -0.000   0.000  -0.000   0.027   0.000
 -0.514   0.107   0.053   0.000   0.089
 total augmentation occupancy for first ion, spin component:           2
 -0.000   0.000  -0.000   0.000  -0.000
  0.000  -0.000  -0.000   0.000  -0.000
 -0.000  -0.000   0.000  -0.000   0.000
  0.000   0.000  -0.000  -0.000   0.000
 -0.000  -0.000   0.000   0.000   0.000


------------------------ aborting loop because EDIFF is reached ----------------------------------------


    CHARGE:  cpu time    1.4738: real time    1.4732
    FORLOC:  cpu time    0.0350: real time    0.0357
    FORNL :  cpu time    9.2226: real time    9.2234
    STRESS:  cpu time   27.6858: real time   27.6879
    FORCOR:  cpu time    0.3439: real time    0.3437
    FORHAR:  cpu time    0.0670: real time    0.0677
    MIXING:  cpu time    0.0070: real time    0.0070
    OFIELD:  cpu time    0.0010: real time    0.0000

 ---------------------------------------------------------------------------------------------

         DFTD3 V3.0 Rev 1        
 Edisp (eV)   -8.31523

 E6    (eV) :    -5.2066
 E8    (eV) :    -3.1086
 % E8        : 37.38
    FORVDW:  cpu time    0.3409: real time    0.3416

  FORCE on cell =-STRESS in cart. coord.  units (eV):
  Direction    XX          YY          ZZ          XY          YZ          ZX
  --------------------------------------------------------------------------------------
  Alpha Z   513.34608   513.34608   513.34608
  Ewald   -4800.44339 -4800.51944 50216.86381-53822.21554     0.07251     0.09552
  Hartree  1317.50255  1317.74117 53789.14386-52226.96183     0.02584     0.02478
  E(xc)   -1227.70693 -1227.70810 -1229.98354    -0.22112     0.00192     0.00177
  Local    -450.61902  -450.88676************106053.00706    -0.07313    -0.09219
  n-local  -499.23602  -499.23711  -413.64474    -9.41390    -0.00342    -0.00487
  augment   267.69542   267.70688   247.10464    -0.51710    -0.00528    -0.00589
  Kinetic  4893.98195  4894.11116  4631.70398    -0.48394    -0.01586    -0.02006
  Fock        0.00000     0.00000     0.00000     0.00000     0.00000     0.00000
  vdW        -7.81289    -7.81291    -8.52708     0.79691     0.00000    -0.00000
  -------------------------------------------------------------------------------------
  Total       6.70776     6.74098     4.70263    -6.00946     0.00257    -0.00095
  in kB      13.26874    13.33446     9.30237   -11.88741     0.00509    -0.00188
  external pressure =       11.97 kB  Pullay stress =        0.00 kB


 VOLUME and BASIS-vectors are now :
 -----------------------------------------------------------------------------
  energy-cutoff  :      500.00
  volume of cell :      809.95
      direct lattice vectors                 reciprocal lattice vectors
     0.000000000  0.000000000  5.844679380     0.000000000  0.000000000  0.171095784
     4.468476600 -4.468476600  0.000000000     0.111894958 -0.111894958  0.000000000
    15.506300460 15.506300460  0.000000000     0.032244958  0.032244958  0.000000000

  length of vectors
     5.844679380  6.319380211 21.929220413     0.171095784  0.158243367  0.045601256


 FORCES acting on ions
    electron-ion (+dipol)            ewald-force                    non-local-force                 convergence-correction
 -----------------------------------------------------------------------------------------------
   -.209E+03 -.209E+03 0.208E-02   0.215E+03 0.215E+03 -.172E-02   -.594E+01 -.593E+01 -.848E-04   0.197E-03 0.159E-03 -.122E-03
   0.994E+03 0.994E+03 -.669E-05   -.101E+04 -.101E+04 -.276E-04   0.203E+02 0.203E+02 0.108E-03   -.669E-03 -.667E-03 -.127E-06
   0.994E+03 0.994E+03 -.630E-04   -.101E+04 -.101E+04 0.279E-04   0.203E+02 0.203E+02 0.109E-03   -.664E-03 -.661E-03 -.173E-06
   0.864E+03 0.835E+03 0.899E-03   -.857E+03 -.840E+03 0.678E-02   -.833E+01 0.609E+01 -.140E-01   0.405E-03 0.197E-03 0.124E-03
   0.864E+03 0.835E+03 -.101E-02   -.857E+03 -.840E+03 -.678E-02   -.833E+01 0.609E+01 0.111E-01   0.404E-03 0.196E-03 -.125E-03
   0.835E+03 0.864E+03 0.991E-03   -.840E+03 -.857E+03 0.672E-02   0.609E+01 -.832E+01 -.135E-01   0.191E-03 0.394E-03 0.124E-03
   0.835E+03 0.864E+03 -.104E-02   -.840E+03 -.857E+03 -.673E-02   0.609E+01 -.832E+01 0.116E-01   0.192E-03 0.395E-03 -.124E-03
   0.607E+03 0.607E+03 0.414E-03   -.605E+03 -.605E+03 -.407E-03   -.112E+01 -.112E+01 -.392E-02   0.283E-03 0.313E-03 -.460E-06
   0.607E+03 0.607E+03 -.582E-03   -.605E+03 -.605E+03 0.565E-03   -.111E+01 -.111E+01 -.388E-02   0.395E-03 0.429E-03 -.397E-06
   0.534E+03 0.534E+03 0.591E-03   -.538E+03 -.538E+03 -.625E-03   0.331E+01 0.331E+01 -.595E-03   0.394E-03 0.355E-03 -.435E-05
   0.534E+03 0.534E+03 -.754E-03   -.537E+03 -.537E+03 0.677E-03   0.313E+01 0.313E+01 -.543E-03   0.121E-02 0.116E-02 -.307E-06
   0.320E+03 0.280E+03 -.196E+00   -.324E+03 -.277E+03 0.194E+00   0.414E+01 -.319E+01 -.371E-03   -.239E-02 0.282E-03 0.168E-02
   0.320E+03 0.280E+03 0.202E+00   -.324E+03 -.277E+03 -.199E+00   0.414E+01 -.319E+01 -.157E-02   -.243E-02 0.245E-03 -.168E-02
   0.280E+03 0.320E+03 -.189E+00   -.277E+03 -.324E+03 0.187E+00   -.320E+01 0.414E+01 -.172E-02   0.207E-03 -.244E-02 0.170E-02
   0.280E+03 0.320E+03 0.196E+00   -.277E+03 -.324E+03 -.193E+00   -.320E+01 0.414E+01 -.188E-02   0.200E-03 -.246E-02 -.170E-02
   0.699E+02 0.699E+02 0.744E-02   -.660E+02 -.660E+02 -.647E-02   -.372E+01 -.371E+01 -.306E-02   -.273E-03 -.508E-03 0.780E-04
   0.687E+02 0.687E+02 -.346E-02   -.635E+02 -.635E+02 0.446E-02   -.503E+01 -.502E+01 -.270E-02   -.259E-03 -.442E-03 -.630E-04
   -.138E+02 -.138E+02 0.163E-01   0.934E+01 0.934E+01 -.216E-01   0.449E+01 0.450E+01 0.407E-02   -.508E-02 -.358E-02 0.204E-03
   -.135E+02 -.135E+02 -.255E-01   0.828E+01 0.828E+01 0.231E-01   0.524E+01 0.527E+01 0.231E-02   -.995E-02 -.958E-02 0.199E-04
   -.259E+03 -.236E+03 -.553E+00   0.262E+03 0.232E+03 0.348E-01   -.363E+01 0.335E+01 0.534E+00   -.919E-02 0.548E-02 -.730E-03
   -.259E+03 -.236E+03 0.526E+00   0.262E+03 0.232E+03 -.209E-03   -.363E+01 0.335E+01 -.541E+00   -.948E-02 0.561E-02 0.866E-04
   -.236E+03 -.259E+03 -.549E+00   0.232E+03 0.262E+03 0.362E-01   0.337E+01 -.365E+01 0.528E+00   0.569E-02 -.852E-02 -.823E-03
   -.236E+03 -.259E+03 0.539E+00   0.232E+03 0.262E+03 -.283E-01   0.337E+01 -.365E+01 -.526E+00   0.502E-02 -.928E-02 0.922E-04
   -.470E+03 -.470E+03 0.291E-01   0.470E+03 0.470E+03 -.384E-01   -.239E+00 -.194E+00 0.430E-02   0.326E-02 0.356E-02 0.174E-02
   -.436E+03 -.436E+03 0.413E-02   0.435E+03 0.435E+03 -.840E-02   0.683E+00 0.690E+00 0.683E-02   0.171E-02 0.234E-02 -.143E-02
   -.556E+03 -.556E+03 0.997E-02   0.554E+03 0.554E+03 0.854E-02   0.198E+01 0.200E+01 -.211E-01   -.731E-02 -.732E-02 0.931E-03
   -.570E+03 -.570E+03 -.226E-01   0.567E+03 0.567E+03 0.348E-01   0.358E+01 0.360E+01 -.105E-01   0.692E-02 0.645E-02 -.124E-02
   -.824E+03 -.864E+03 0.447E+02   0.824E+03 0.875E+03 -.436E+02   -.661E-01 -.107E+02 -.117E+01   -.436E-02 -.627E-02 0.556E-02
   -.824E+03 -.864E+03 -.447E+02   0.824E+03 0.875E+03 0.436E+02   -.814E-01 -.107E+02 0.115E+01   -.477E-02 -.674E-02 -.483E-02
   -.864E+03 -.823E+03 0.447E+02   0.875E+03 0.824E+03 -.435E+02   -.106E+02 -.713E-01 -.116E+01   -.467E-02 -.384E-02 0.514E-02
   -.864E+03 -.824E+03 -.447E+02   0.875E+03 0.824E+03 0.436E+02   -.107E+02 -.673E-01 0.115E+01   -.541E-02 -.474E-02 -.501E-02
   -.100E+04 -.100E+04 -.236E-01   0.103E+04 0.103E+04 0.206E-01   -.217E+02 -.216E+02 0.818E-03   -.461E-02 -.429E-02 0.882E-03
   -.967E+03 -.967E+03 0.207E-01   0.954E+03 0.954E+03 -.206E-01   0.137E+02 0.137E+02 0.117E-02   0.223E-01 0.216E-01 -.169E-02
   0.600E+03 0.600E+03 0.111E-03   -.596E+03 -.596E+03 -.621E-04   -.181E+01 -.181E+01 -.689E-03   0.155E-03 0.150E-03 0.148E-06
   0.600E+03 0.600E+03 -.184E-04   -.596E+03 -.596E+03 0.636E-04   -.183E+01 -.183E+01 -.689E-03   0.382E-03 0.377E-03 -.101E-06
   0.543E+03 0.543E+03 -.645E-02   -.547E+03 -.547E+03 0.490E-02   0.123E+01 0.123E+01 0.306E-03   0.277E-04 0.335E-04 -.603E-06
   0.543E+03 0.543E+03 0.666E-02   -.547E+03 -.547E+03 -.491E-02   0.123E+01 0.123E+01 -.124E-02   0.283E-04 0.334E-04 0.651E-06
   0.201E+03 0.201E+03 0.970E-01   -.201E+03 -.201E+03 0.149E+00   -.815E-01 -.784E-01 -.773E-01   0.362E-03 0.304E-03 0.125E-02
   0.201E+03 0.201E+03 -.963E-01   -.201E+03 -.201E+03 -.149E+00   -.815E-01 -.785E-01 0.776E-01   0.336E-03 0.294E-03 -.124E-02
   0.200E+03 0.200E+03 -.196E-02   -.201E+03 -.201E+03 0.167E-02   0.321E+00 0.322E+00 -.168E-05   -.151E-02 -.142E-02 0.723E-05
   0.199E+03 0.199E+03 -.890E-02   -.200E+03 -.200E+03 0.838E-02   0.461E+00 0.463E+00 0.111E-03   -.556E-03 -.497E-03 -.374E-05
   -.161E+03 -.161E+03 0.281E-01   0.161E+03 0.161E+03 -.256E-01   -.684E+00 -.684E+00 -.265E-02   0.641E-03 0.491E-03 0.189E-03
   -.173E+03 -.173E+03 0.149E-01   0.173E+03 0.173E+03 -.127E-01   0.283E+00 0.282E+00 -.305E-02   -.207E-02 -.223E-02 -.134E-03
   -.157E+03 -.158E+03 0.197E+01   0.157E+03 0.157E+03 -.181E+01   0.257E+00 0.256E+00 -.134E+00   0.133E-02 0.146E-02 0.752E-03
   -.157E+03 -.158E+03 -.196E+01   0.157E+03 0.157E+03 0.180E+01   0.257E+00 0.258E+00 0.133E+00   0.109E-02 0.118E-02 -.798E-03
   -.523E+03 -.523E+03 -.874E+01   0.524E+03 0.524E+03 0.530E+01   -.105E+01 -.105E+01 0.344E+01   0.366E-05 0.139E-03 0.204E-03
   -.523E+03 -.523E+03 0.879E+01   0.524E+03 0.524E+03 -.533E+01   -.105E+01 -.104E+01 -.345E+01   -.442E-04 0.116E-03 -.630E-04
   -.540E+03 -.540E+03 -.292E-01   0.539E+03 0.539E+03 0.313E-01   0.927E+00 0.926E+00 0.171E-02   0.157E-04 -.582E-04 0.895E-03
   -.127E+04 -.127E+04 0.369E-01   0.126E+04 0.126E+04 -.450E-01   0.356E+01 0.356E+01 0.772E-02   0.522E-02 0.478E-02 -.411E-02
 -----------------------------------------------------------------------------------------------
   -.152E+02 -.153E+02 0.421E-01   -.114E-11 0.136E-11 0.527E-14   0.152E+02 0.153E+02 -.725E-01   -.171E-01 -.171E-01 -.429E-02
 
 
 POSITION                                       TOTAL-FORCE (eV/Angst)
 -----------------------------------------------------------------------------------
      9.48476      8.85901      3.68762        -0.019632     -0.019295      0.000862
      2.54568     -2.54568      0.76455         0.788665      0.786932      0.000782
      2.54568     -2.54568      3.68689         0.788631      0.786898      0.000782
      2.04396     -0.31144      2.22572        -1.765137      0.412372     -0.005453
      2.04396     -0.31144      5.14806        -1.765136      0.412372      0.003875
      4.77992     -3.04740      2.22572         0.414103     -1.763001     -0.004928
      4.77992     -3.04740      5.14806         0.414104     -1.763001      0.004405
      4.27820     -0.81316      0.76455         1.132895      1.130220     -0.003204
      4.27820     -0.81316      3.68689         1.137134      1.134446     -0.003192
      2.54568      1.92279      0.76455        -0.214008     -0.217593      0.000075
      2.54568      1.92279      3.68689        -0.287148     -0.290685      0.000089
      4.77992      1.42107      2.22572        -0.001187      0.203089     -0.000045
      4.77992      1.42107      5.14806        -0.001013      0.203113      0.000585
      6.51244     -0.31144      2.22572         0.203383     -0.000760     -0.001081
      6.51244     -0.31144      5.14806         0.203409     -0.000603     -0.000053
      4.27820      3.65531      0.76455         0.172745      0.169676     -0.001300
      4.27820      3.65531      3.68689         0.239771      0.236059     -0.001069
      7.00819      1.91711      0.76434         0.004229      0.001960     -0.000288
      7.01311      1.92175      3.68661         0.012092      0.012303      0.000605
      6.52422      4.16380      2.23314         0.002815     -0.010957      0.015470
      6.52419      4.16386      5.14022         0.003253     -0.010777     -0.014744
      9.25445      1.43357      2.23342        -0.011513      0.002596      0.015564
      9.25452      1.43364      5.14020        -0.010819      0.004233     -0.014768
      8.71986      3.62802      0.76436        -0.026432     -0.026187     -0.002510
      8.73870      3.64769      3.68648        -0.005551     -0.007097      0.001837
      6.99646      6.37301      0.76498         0.002407      0.002336     -0.000909
      7.09650      6.47298      3.68735        -0.009383     -0.008321      0.001210
      9.36827      6.01287      2.13486         0.001806      0.014801     -0.004211
      9.36869      6.01343      5.24024         0.002397      0.015199      0.003891
     11.10475      4.27613      2.13480         0.012252      0.001506     -0.002800
     11.10501      4.27664      5.24042         0.015323      0.001341      0.004672
      8.80792      8.18362      0.76525         0.005790      0.006662     -0.000649
      8.79765      8.17327      3.68760         0.009454      0.010694      0.000301
      1.17770      0.55481      0.76455         1.834069      1.835977      0.000069
      1.17770      0.55481      3.68689         1.859965      1.861878      0.000065
      3.41194     -1.67942      2.22572        -2.274484     -2.271365     -0.000540
      3.41194     -1.67942      5.14806        -2.274486     -2.271368      0.001225
      3.41194      2.78905      2.22572         0.205194      0.208510      0.170420
      3.41194      2.78905      5.14806         0.205189      0.208491     -0.168046
      5.64618      0.55481      0.76455        -0.533484     -0.531819      0.000432
      5.64618      0.55481      3.68689        -0.551110     -0.549526      0.000288
      5.65214      5.03029      0.76446         0.006623      0.005205      0.000767
      5.68362      5.06141      3.68676         0.005886      0.005158     -0.000274
      7.85525      2.76485      2.22746         0.008753      0.007870      0.020830
      7.85527      2.76487      5.14578         0.008600      0.007777     -0.020944
      7.94759      7.32421      2.14946         0.006632      0.007731     -0.003403
      7.94758      7.32414      5.22571         0.005837      0.008647      0.003625
     10.02227      4.93057      0.76520         0.032760      0.033231      0.005397
     10.12093      5.02903      3.68782         0.004353      0.003071     -0.003711
 -----------------------------------------------------------------------------------
    total drift:                               -0.001147      0.005566     -0.034709
  FORCES: max atom, RMS     0.046975    0.013648
  Number: max atom                48
  FORCE total and by dimension    0.095538    0.033231


--------------------------------------------------------------------------------------------------------



  FREE ENERGIE OF THE ION-ELECTRON SYSTEM (eV)
  ---------------------------------------------------
  free  energy   TOTEN  =      -314.67208985 eV

  energy  without entropy=     -314.66656259  energy(sigma->0) =     -314.66932622
 
 d Force = 0.1323393E-03[ 0.104E-03, 0.161E-03]  d Energy = 0.1269677E-03 0.537E-05
 d Force = 0.1777156E+01[ 0.178E+01, 0.178E+01]  d Ewald  = 0.1777156E+01 0.656E-06


--------------------------------------------------------------------------------------------------------


    POTLOK:  cpu time    0.3779: real time    0.3908


--------------------------------------------------------------------------------------------------------


 Conjugate gradient step on ions:
 trial-energy change:   -0.000127  1 .order   -0.000132   -0.000161   -0.000104
  (g-gl).g = 0.941E-04      g.g   = 0.150E-03  gl.gl    = 0.457E-03
 g(Force)  = 0.150E-03   g(Stress)= 0.000E+00 ortho     = 0.174E-04
 gamma     =   0.20570
 trial     =   1.04836
 opt step  =   2.94175  (harmonic =   2.94175) maximal distance =0.00143330
 next E    =  -314.672189   (d E  =  -0.00023)


--------------------------------------------------------------------------------------------------------


  
 reached required accuracy - stopping structural energy minimisation
     LOOP+:  cpu time  125.4449: real time  125.5290
    4ORBIT:  cpu time    0.0000: real time    0.0000

 total amount of memory used by VASP on root node   113750. kBytes
========================================================================

   base      :      30000. kBytes
   nonlr-proj:       8674. kBytes
   fftplans  :       5963. kBytes
   grid      :      16785. kBytes
   one-center:        279. kBytes
   wavefun   :      52049. kBytes
 
  
  
 General timing and accounting informations for this job:
 ========================================================
  
                  Total CPU time used (sec):     4970.862
                            User time (sec):     4966.969
                          System time (sec):        3.893
                         Elapsed time (sec):     5034.709
  
                   Maximum memory used (kb):           0.
                   Average memory used (kb):           0.
  
                          Minor page faults:       347350
                          Major page faults:            0
                 Voluntary context switches:        10640
