<?xml version="1.0" encoding="ISO-8859-1"?>
<modeling>
 <generator>
  <i name="program" type="string">vasp </i>
  <i name="version" type="string">5.4.1  </i>
  <i name="subversion" type="string">08Jul2015 (build Apr 24 2014 00:09:29) complex standard with constrain (TS)     parallel </i>
  <i name="platform" type="string">IBM of Center for Computational Chemistry </i>
  <i name="date" type="string">2018 05 05 </i>
  <i name="time" type="string">09:52:58 </i>
 </generator>
 <incar>
  <i type="string" name="SYSTEM"> dopGeO2_Ir_Hab_sp2</i>
  <i type="int" name="ISTART">     0</i>
  <i type="string" name="PREC">accurate       ! [low/medium/high/norma</i>
  <i type="string" name="ALGO">Fast</i>
  <i type="int" name="ISPIN">     2</i>
  <i type="int" name="NELM">   300</i>
  <i type="int" name="NELMIN">     3</i>
  <i type="int" name="IBRION">     2</i>
  <i name="EDIFFG">     -0.05000000</i>
  <i type="int" name="NSW">  1000</i>
  <i type="int" name="ISIF">     2</i>
  <i type="int" name="ISYM">     0</i>
  <i name="ENCUT">    500.00000000</i>
  <i name="POTIM">      0.10000000</i>
  <i type="string" name="LREAL"> A    ! aproximace, T zpomaluje, ale pre</i>
  <i type="int" name="ISMEAR">     0</i>
  <i name="SIGMA">      0.05000000</i>
  <i type="int" name="NWRITE">     2</i>
  <i type="logical" name="LWAVE"> F  </i>
  <i type="logical" name="LCHARG"> F  </i>
  <v type="int" name="KPOINT_BSE">    -1     0     0     0</v>
  <i type="int" name="NELM">   300</i>
 </incar>
 <kpoints>
  <generation param="Gamma">
   <v type="int" name="divisions">       4        4        1 </v>
   <v name="usershift">      0.00000000       0.00000000       0.00000000 </v>
   <v name="genvec1">      0.25000000       0.00000000       0.00000000 </v>
   <v name="genvec2">      0.00000000       0.25000000       0.00000000 </v>
   <v name="genvec3">      0.00000000       0.00000000       1.00000000 </v>
   <v name="shift">      0.00000000       0.00000000       0.00000000 </v>
  </generation>
  <varray name="kpointlist" >
   <v>       0.00000000       0.00000000       0.00000000 </v>
   <v>       0.25000000       0.00000000       0.00000000 </v>
   <v>       0.50000000       0.00000000       0.00000000 </v>
   <v>       0.00000000       0.25000000       0.00000000 </v>
   <v>       0.25000000       0.25000000       0.00000000 </v>
   <v>       0.50000000       0.25000000       0.00000000 </v>
   <v>      -0.25000000       0.25000000       0.00000000 </v>
   <v>       0.00000000       0.50000000       0.00000000 </v>
   <v>       0.25000000       0.50000000       0.00000000 </v>
   <v>       0.50000000       0.50000000       0.00000000 </v>
  </varray>
  <varray name="weights" >
   <v>       0.06250000 </v>
   <v>       0.12500000 </v>
   <v>       0.06250000 </v>
   <v>       0.12500000 </v>
   <v>       0.12500000 </v>
   <v>       0.12500000 </v>
   <v>       0.12500000 </v>
   <v>       0.06250000 </v>
   <v>       0.12500000 </v>
   <v>       0.06250000 </v>
  </varray>
 </kpoints>
 <parameters>
  <separator name="general" >
   <i type="string" name="SYSTEM">dopGeO2_Ir_Hab_sp2</i>
   <i type="logical" name="LCOMPAT"> F  </i>
  </separator>
  <separator name="electronic" >
   <i type="string" name="PREC">accura</i>
   <i name="ENMAX">    500.00000000</i>
   <i name="ENAUG">    605.39200000</i>
   <i name="EDIFF">      0.00010000</i>
   <i type="int" name="IALGO">    68</i>
   <i type="int" name="IWAVPR">    11</i>
   <i type="int" name="NBANDS">   184</i>
   <i name="NELECT">    262.00000000</i>
   <i type="int" name="TURBO">     0</i>
   <i type="int" name="IRESTART">     0</i>
   <i type="int" name="NREBOOT">     0</i>
   <i type="int" name="NMIN">     0</i>
   <i name="EREF">      0.00000000</i>
   <separator name="electronic smearing" >
    <i type="int" name="ISMEAR">     0</i>
    <i name="SIGMA">      0.05000000</i>
    <i name="KSPACING">      0.50000000</i>
    <i type="logical" name="KGAMMA"> T  </i>
   </separator>
   <separator name="electronic projectors" >
    <i type="logical" name="LREAL"> T  </i>
    <v name="ROPT">     -0.00025000     -0.00025000     -0.00025000     -0.00025000</v>
    <i type="int" name="LMAXPAW">  -100</i>
    <i type="int" name="LMAXMIX">     2</i>
    <i type="logical" name="NLSPLINE"> F  </i>
   </separator>
   <separator name="electronic startup" >
    <i type="int" name="ISTART">     0</i>
    <i type="int" name="ICHARG">     2</i>
    <i type="int" name="INIWAV">     1</i>
   </separator>
   <separator name="electronic spin" >
    <i type="int" name="ISPIN">     2</i>
    <i type="logical" name="LNONCOLLINEAR"> F  </i>
    <v name="MAGMOM">      1.00000000      1.00000000      1.00000000      1.00000000      1.00000000      1.00000000      1.00000000      1.00000000      1.00000000      1.00000000      1.00000000      1.00000000      1.00000000      1.00000000      1.00000000      1.00000000      1.00000000      1.00000000      1.00000000      1.00000000
      1.00000000      1.00000000      1.00000000      1.00000000      1.00000000      1.00000000      1.00000000      1.00000000      1.00000000      1.00000000      1.00000000      1.00000000      1.00000000      1.00000000      1.00000000      1.00000000      1.00000000      1.00000000      1.00000000      1.00000000
      1.00000000      1.00000000      1.00000000      1.00000000      1.00000000      1.00000000      1.00000000      1.00000000      1.00000000</v>
    <i name="NUPDOWN">     -1.00000000</i>
    <i type="logical" name="LSORBIT"> F  </i>
    <v name="SAXIS">      0.00000000      0.00000000      1.00000000</v>
    <i type="logical" name="LSPIRAL"> F  </i>
    <v name="QSPIRAL">      0.00000000      0.00000000      0.00000000</v>
    <i type="logical" name="LZEROZ"> F  </i>
   </separator>
   <separator name="electronic exchange-correlation" >
    <i type="logical" name="LASPH"> F  </i>
    <i type="logical" name="LMETAGGA"> F  </i>
   </separator>
   <separator name="electronic convergence" >
    <i type="int" name="NELM">   300</i>
    <i type="int" name="NELMDL">    -5</i>
    <i type="int" name="NELMIN">     3</i>
    <i name="ENINI">    500.00000000</i>
    <separator name="electronic convergence detail" >
     <i type="logical" name="LDIAG"> T  </i>
     <i type="logical" name="LSUBROT"> F  </i>
     <i name="WEIMIN">      0.00100000</i>
     <i name="EBREAK">      0.00000014</i>
     <i name="DEPER">      0.30000000</i>
     <i type="int" name="NRMM">     4</i>
     <i name="TIME">      0.40000000</i>
    </separator>
   </separator>
   <separator name="electronic mixer" >
    <i name="AMIX">      0.40000000</i>
    <i name="BMIX">      1.00000000</i>
    <i name="AMIN">      0.10000000</i>
    <i name="AMIX_MAG">      1.60000000</i>
    <i name="BMIX_MAG">      1.00000000</i>
    <separator name="electronic mixer details" >
     <i type="int" name="IMIX">     4</i>
     <i type="logical" name="MIXFIRST"> F  </i>
     <i type="int" name="MAXMIX">   -45</i>
     <i name="WC">    100.00000000</i>
     <i type="int" name="INIMIX">     1</i>
     <i type="int" name="MIXPRE">     1</i>
     <i type="int" name="MREMOVE">     5</i>
    </separator>
   </separator>
   <separator name="electronic dipolcorrection" >
    <i type="logical" name="LDIPOL"> F  </i>
    <i type="logical" name="LMONO"> F  </i>
    <i type="int" name="IDIPOL">     0</i>
    <i name="EPSILON">      1.00000000</i>
    <v name="DIPOL">   -100.00000000   -100.00000000   -100.00000000</v>
    <i name="EFIELD">      0.00000000</i>
   </separator>
  </separator>
  <separator name="grids" >
   <i type="int" name="NGX">    48</i>
   <i type="int" name="NGY">    48</i>
   <i type="int" name="NGZ">   160</i>
   <i type="int" name="NGXF">    96</i>
   <i type="int" name="NGYF">    96</i>
   <i type="int" name="NGZF">   320</i>
   <i type="logical" name="ADDGRID"> F  </i>
  </separator>
  <separator name="ionic" >
   <i type="int" name="NSW">  1000</i>
   <i type="int" name="IBRION">     2</i>
   <i type="int" name="ISIF">     2</i>
   <i name="PSTRESS">      0.00000000</i>
   <i name="EDIFFG">     -0.05000000</i>
   <i type="int" name="NFREE">     1</i>
   <i name="POTIM">      0.10000000</i>
   <i name="SMASS">     -3.00000000</i>
   <i name="SCALEE">      1.00000000</i>
  </separator>
  <separator name="ionic md" >
   <i name="TEBEG">      0.00010000</i>
   <i name="TEEND">      0.00010000</i>
   <i type="int" name="NBLOCK">     1</i>
   <i type="int" name="KBLOCK">  1000</i>
   <i type="int" name="NPACO">   256</i>
   <i name="APACO">     16.00000000</i>
  </separator>
  <separator name="symmetry" >
   <i type="int" name="ISYM">     0</i>
   <i name="SYMPREC">      0.00001000</i>
  </separator>
  <separator name="dos" >
   <i type="logical" name="LORBIT"> F  </i>
   <v name="RWIGS">     -1.00000000     -1.00000000     -1.00000000     -1.00000000</v>
   <i type="int" name="NEDOS">   301</i>
   <i name="EMIN">     10.00000000</i>
   <i name="EMAX">    -10.00000000</i>
   <i name="EFERMI">      0.00000000</i>
  </separator>
  <separator name="writing" >
   <i type="int" name="NWRITE">     2</i>
   <i type="logical" name="LWAVE"> F  </i>
   <i type="logical" name="LCHARG"> F  </i>
   <i type="logical" name="LPARD"> F  </i>
   <i type="logical" name="LVTOT"> F  </i>
   <i type="logical" name="LVHAR"> F  </i>
   <i type="logical" name="LELF"> F  </i>
   <i type="logical" name="LOPTICS"> F  </i>
   <v name="STM">      0.00000000      0.00000000      0.00000000      0.00000000      0.00000000      0.00000000      0.00000000</v>
  </separator>
  <separator name="performance" >
   <i type="int" name="NPAR">     4</i>
   <i type="int" name="NSIM">     4</i>
   <i type="int" name="NBLK">    -1</i>
   <i type="logical" name="LPLANE"> T  </i>
   <i type="logical" name="LSCALAPACK"> T  </i>
   <i type="logical" name="LSCAAWARE"> F  </i>
   <i type="logical" name="LSCALU"> F  </i>
   <i type="logical" name="LASYNC"> F  </i>
   <i type="logical" name="LORBITALREAL"> F  </i>
  </separator>
  <separator name="miscellaneous" >
   <i type="int" name="IDIOT">     3</i>
   <i type="logical" name="LMUSIC"> F  </i>
   <v name="POMASS">      1.00000000     16.00000000     72.61000000    192.22000000</v>
   <v name="DARWINR">      0.00000000      0.00000000      0.00000000      0.00000000</v>
   <v name="DARWINV">      1.00000000      1.00000000      1.00000000      1.00000000</v>
   <i type="logical" name="LCORR"> T  </i>
  </separator>
  <i type="logical" name="GGA_COMPAT"> T  </i>
  <i type="logical" name="LBERRY"> F  </i>
  <i type="int" name="ICORELEVEL">     0</i>
  <i type="logical" name="LDAU"> F  </i>
  <i type="int" name="I_CONSTRAINED_M">     0</i>
  <separator name="electronic exchange-correlation" >
   <i type="string" name="GGA">--</i>
   <i type="int" name="VOSKOWN">     0</i>
   <i type="logical" name="LHFCALC"> F  </i>
   <i type="string" name="PRECFOCK"></i>
   <i type="logical" name="LSYMGRAD"> F  </i>
   <i type="logical" name="LHFONE"> F  </i>
   <i type="logical" name="LRHFCALC"> F  </i>
   <i type="logical" name="LTHOMAS"> F  </i>
   <i type="logical" name="LMODELHF"> F  </i>
   <i name="ENCUT4O">     -1.00000000</i>
   <i type="int" name="EXXOEP">     0</i>
   <i type="int" name="FOURORBIT">     0</i>
   <i name="AEXX">      0.00000000</i>
   <i name="HFALPHA">      0.00000000</i>
   <i name="MCALPHA">      0.00000000</i>
   <i name="ALDAX">      1.00000000</i>
   <i name="AGGAX">      1.00000000</i>
   <i name="ALDAC">      1.00000000</i>
   <i name="AGGAC">      1.00000000</i>
   <i type="int" name="NKREDX">     1</i>
   <i type="int" name="NKREDY">     1</i>
   <i type="int" name="NKREDZ">     1</i>
   <i type="logical" name="SHIFTRED"> F  </i>
   <i type="logical" name="ODDONLY"> F  </i>
   <i type="logical" name="EVENONLY"> F  </i>
   <i type="int" name="LMAXFOCK">     0</i>
   <i type="int" name="NMAXFOCKAE">     0</i>
   <i type="logical" name="LFOCKAEDFT"> F  </i>
   <i name="HFSCREEN">      0.00000000</i>
   <i name="HFSCREENC">      0.00000000</i>
   <i type="int" name="NBANDSGWLOW">     0</i>
  </separator>
  <separator name="vdW DFT" >
   <i type="logical" name="LUSE_VDW"> F  </i>
   <i name="Zab_VDW">     -0.84910000</i>
   <i name="PARAM1">      0.12340000</i>
   <i name="PARAM2">      1.00000000</i>
   <i name="PARAM3">      0.00000000</i>
  </separator>
  <separator name="model GW" >
   <i type="int" name="MODEL_GW">     0</i>
   <i name="MODEL_EPS0">      9.91775878</i>
   <i name="MODEL_ALPHA">      1.00000000</i>
  </separator>
  <separator name="linear response parameters" >
   <i type="logical" name="LEPSILON"> F  </i>
   <i type="logical" name="LRPA"> F  </i>
   <i type="logical" name="LNABLA"> F  </i>
   <i type="logical" name="LVEL"> F  </i>
   <i type="int" name="KINTER">     0</i>
   <i name="CSHIFT">      0.10000000</i>
   <i name="OMEGAMAX">     -1.00000000</i>
   <i name="DEG_THRESHOLD">      0.00200000</i>
  </separator>
  <separator name="orbital magnetization" >
   <i type="logical" name="NUCIND"> F  </i>
   <v name="MAGPOS">      0.00000000      0.00000000      0.00000000</v>
   <i type="logical" name="LNICSALL"> T  </i>
   <i type="logical" name="ORBITALMAG"> F  </i>
   <i type="logical" name="LMAGBLOCH"> F  </i>
   <i type="logical" name="LCHIMAG"> F  </i>
   <i type="logical" name="LGAUGE"> T  </i>
   <i type="int" name="MAGATOM">     0</i>
   <v name="MAGDIPOL">      0.00000000      0.00000000      0.00000000</v>
   <v name="AVECCONST">      0.00000000      0.00000000      0.00000000</v>
  </separator>
  <separator name="response functions" >
   <i type="logical" name="LADDER"> F  </i>
   <i type="logical" name="LFXC"> F  </i>
   <i type="logical" name="LHARTREE"> T  </i>
   <i type="int" name="IBSE">     0</i>
   <v type="int" name="KPOINT">    -1     0     0     0</v>
   <i type="logical" name="LTCTE"> F  </i>
   <i type="logical" name="LTETE"> F  </i>
   <i type="logical" name="LTRIPLET"> F  </i>
   <i type="logical" name="LFXCEPS"> F  </i>
   <i type="logical" name="LFXHEG"> F  </i>
   <i type="int" name="NATURALO">     0</i>
   <i type="logical" name="L2ORDER"> F  </i>
   <i type="logical" name="LUSEW"> F  </i>
   <i name="ENCUTGW">     -2.00000000</i>
   <i name="ENCUTGWSOFT">     -2.00000000</i>
   <i name="ENCUTLF">     -1.00000000</i>
   <i type="int" name="LMAXMP2">    -1</i>
   <i name="SCISSOR">      0.00000000</i>
   <i type="int" name="NOMEGA">     0</i>
   <i type="int" name="NOMEGAR">     0</i>
   <i type="int" name="NBANDSGW">    -1</i>
   <i type="int" name="NBANDSO">    -1</i>
   <i type="int" name="NBANDSV">    -1</i>
   <i type="int" name="NELM">   300</i>
   <i type="int" name="NELMHF">     1</i>
   <i type="int" name="DIM">     3</i>
   <i type="int" name="ANTIRES">     0</i>
   <i name="OMEGAMAX">    -30.00000000</i>
   <i name="OMEGAMIN">    -30.00000000</i>
   <i name="OMEGATL">   -200.00000000</i>
   <i type="int" name="OMEGAGRID">     0</i>
   <i name="CSHIFT">     -0.10000000</i>
   <i type="logical" name="SELFENERGY"> F  </i>
   <i type="logical" name="LSPECTRAL"> F  </i>
   <i type="logical" name="LSPECTRALGW"> F  </i>
   <i type="logical" name="LSINGLES"> F  </i>
   <i type="logical" name="LFERMIGW"> F  </i>
   <i type="logical" name="ODDONLYGW"> F  </i>
   <i type="logical" name="EVENONLYGW"> F  </i>
   <i type="int" name="NKREDLFX">     1</i>
   <i type="int" name="NKREDLFY">     1</i>
   <i type="int" name="NKREDLFZ">     1</i>
   <i type="int" name="MAXMEM">  1800</i>
   <i type="int" name="TELESCOPE">     0</i>
   <i type="int" name="TAUPAR">     1</i>
   <i type="int" name="OMEGAPAR">    -1</i>
   <i name="LAMBDA">      1.00000000</i>
  </separator>
  <separator name="External order field" >
   <i name="OFIELD_KAPPA">      0.00000000</i>
   <v name="OFIELD_K">      0.00000000      0.00000000      0.00000000</v>
   <i name="OFIELD_Q6_NEAR">      0.00000000</i>
   <i name="OFIELD_Q6_FAR">      0.00000000</i>
   <i name="OFIELD_A">      0.00000000</i>
  </separator>
 </parameters>
 <atominfo>
  <atoms>      49 </atoms>
  <types>       4 </types>
  <array name="atoms" >
   <dimension dim="1">ion</dimension>
   <field type="string">element</field>
   <field type="int">atomtype</field>
   <set>
    <rc><c>H </c><c>   1</c></rc>
    <rc><c>O </c><c>   2</c></rc>
    <rc><c>O </c><c>   2</c></rc>
    <rc><c>O </c><c>   2</c></rc>
    <rc><c>O </c><c>   2</c></rc>
    <rc><c>O </c><c>   2</c></rc>
    <rc><c>O </c><c>   2</c></rc>
    <rc><c>O </c><c>   2</c></rc>
    <rc><c>O </c><c>   2</c></rc>
    <rc><c>O </c><c>   2</c></rc>
    <rc><c>O </c><c>   2</c></rc>
    <rc><c>O </c><c>   2</c></rc>
    <rc><c>O </c><c>   2</c></rc>
    <rc><c>O </c><c>   2</c></rc>
    <rc><c>O </c><c>   2</c></rc>
    <rc><c>O </c><c>   2</c></rc>
    <rc><c>O </c><c>   2</c></rc>
    <rc><c>O </c><c>   2</c></rc>
    <rc><c>O </c><c>   2</c></rc>
    <rc><c>O </c><c>   2</c></rc>
    <rc><c>O </c><c>   2</c></rc>
    <rc><c>O </c><c>   2</c></rc>
    <rc><c>O </c><c>   2</c></rc>
    <rc><c>O </c><c>   2</c></rc>
    <rc><c>O </c><c>   2</c></rc>
    <rc><c>O </c><c>   2</c></rc>
    <rc><c>O </c><c>   2</c></rc>
    <rc><c>O </c><c>   2</c></rc>
    <rc><c>O </c><c>   2</c></rc>
    <rc><c>O </c><c>   2</c></rc>
    <rc><c>O </c><c>   2</c></rc>
    <rc><c>O </c><c>   2</c></rc>
    <rc><c>O </c><c>   2</c></rc>
    <rc><c>Ge</c><c>   3</c></rc>
    <rc><c>Ge</c><c>   3</c></rc>
    <rc><c>Ge</c><c>   3</c></rc>
    <rc><c>Ge</c><c>   3</c></rc>
    <rc><c>Ge</c><c>   3</c></rc>
    <rc><c>Ge</c><c>   3</c></rc>
    <rc><c>Ge</c><c>   3</c></rc>
    <rc><c>Ge</c><c>   3</c></rc>
    <rc><c>Ge</c><c>   3</c></rc>
    <rc><c>Ge</c><c>   3</c></rc>
    <rc><c>Ge</c><c>   3</c></rc>
    <rc><c>Ge</c><c>   3</c></rc>
    <rc><c>Ge</c><c>   3</c></rc>
    <rc><c>Ge</c><c>   3</c></rc>
    <rc><c>Ge</c><c>   3</c></rc>
    <rc><c>Ir</c><c>   4</c></rc>
   </set>
  </array>
  <array name="atomtypes" >
   <dimension dim="1">type</dimension>
   <field type="int">atomspertype</field>
   <field type="string">element</field>
   <field>mass</field>
   <field>valence</field>
   <field type="string">pseudopotential</field>
   <set>
    <rc><c>   1</c><c>H </c><c>      1.00000000</c><c>      1.00000000</c><c>  PAW_PBE H 15Jun2001                   </c></rc>
    <rc><c>  32</c><c>O </c><c>     16.00000000</c><c>      6.00000000</c><c>  PAW_PBE O 08Apr2002                   </c></rc>
    <rc><c>  15</c><c>Ge</c><c>     72.61000000</c><c>      4.00000000</c><c>  PAW_PBE Ge 05Jan2001                  </c></rc>
    <rc><c>   1</c><c>Ir</c><c>    192.22000000</c><c>      9.00000000</c><c>  PAW_PBE Ir 06Sep2000                  </c></rc>
   </set>
  </array>
 </atominfo>
 <structure name="initialpos" >
  <crystal>
   <varray name="basis" >
    <v>       0.00000000       0.00000000       5.84467938 </v>
    <v>       4.46847660      -4.46847660       0.00000000 </v>
    <v>      15.50630046      15.50630046       0.00000000 </v>
   </varray>
   <i name="volume">    809.95030024 </i>
   <varray name="rec_basis" >
    <v>       0.00000000       0.00000000       0.17109578 </v>
    <v>       0.11189496      -0.11189496       0.00000000 </v>
    <v>       0.03224496       0.03224496       0.00000000 </v>
   </varray>
  </crystal>
  <varray name="positions" >
   <v>       0.63086345       0.07004145       0.59205392 </v>
   <v>       0.13081166       0.56969810       0.00000000 </v>
   <v>       0.63081166       0.56969810       0.00000000 </v>
   <v>       0.38081166       0.26355810       0.05586496 </v>
   <v>       0.88081166       0.26355810       0.05586496 </v>
   <v>       0.38081166       0.87583810       0.05586496 </v>
   <v>       0.88081166       0.87583810       0.05586496 </v>
   <v>       0.13081166       0.56969810       0.11172992 </v>
   <v>       0.63081166       0.56969810       0.11172992 </v>
   <v>       0.13081166       0.06969810       0.14408584 </v>
   <v>       0.63081166       0.06969810       0.14408584 </v>
   <v>       0.38081166       0.37583810       0.19995080 </v>
   <v>       0.88081166       0.37583810       0.19995080 </v>
   <v>       0.38081166       0.76355810       0.19995080 </v>
   <v>       0.88081166       0.76355810       0.19995080 </v>
   <v>       0.13081166       0.06969810       0.25581576 </v>
   <v>       0.63081166       0.06969810       0.25581576 </v>
   <v>       0.13071715       0.56964676       0.28686280 </v>
   <v>       0.63073812       0.56964014       0.28838734 </v>
   <v>       0.38107573       0.26598300       0.34360789 </v>
   <v>       0.88044851       0.26599078       0.34361739 </v>
   <v>       0.38109789       0.87310486       0.34361061 </v>
   <v>       0.88044992       0.87311160       0.34361779 </v>
   <v>       0.13078567       0.56970984       0.39762397 </v>
   <v>       0.63076781       0.56964553       0.40001068 </v>
   <v>       0.13075638       0.06975938       0.43308537 </v>
   <v>       0.63078149       0.06973206       0.43341903 </v>
   <v>       0.36788306       0.37915356       0.49481918 </v>
   <v>       0.89399477       0.37920560       0.49484199 </v>
   <v>       0.36796855       0.76046601       0.49483763 </v>
   <v>       0.89412900       0.76043525       0.49486663 </v>
   <v>       0.13089344       0.06993796       0.54778510 </v>
   <v>       0.63085914       0.06992240       0.54645268 </v>
   <v>       0.13081166       0.06969810       0.05586496 </v>
   <v>       0.63081166       0.06969810       0.05586496 </v>
   <v>       0.38081166       0.56969810       0.05586496 </v>
   <v>       0.88081166       0.56969810       0.05586496 </v>
   <v>       0.38081166       0.06969810       0.19995080 </v>
   <v>       0.88081166       0.06969810       0.19995080 </v>
   <v>       0.13081166       0.56969810       0.19995080 </v>
   <v>       0.63081166       0.56969810       0.19995080 </v>
   <v>       0.13077278       0.06953496       0.34693964 </v>
   <v>       0.63077284       0.06955335       0.34704099 </v>
   <v>       0.37856086       0.56952065       0.34130311 </v>
   <v>       0.88290640       0.56953722       0.34131353 </v>
   <v>       0.37921435       0.06982921       0.49633010 </v>
   <v>       0.88249443       0.06975389       0.49633617 </v>
   <v>       0.13097103       0.56977573       0.48178499 </v>
   <v>       0.63109853       0.56981433       0.48708492 </v>
  </varray>
  <varray name="selective"  type="logical" >
   <v type="logical" >  T  T  T </v>
   <v type="logical" >  F  F  F </v>
   <v type="logical" >  F  F  F </v>
   <v type="logical" >  F  F  F </v>
   <v type="logical" >  F  F  F </v>
   <v type="logical" >  F  F  F </v>
   <v type="logical" >  F  F  F </v>
   <v type="logical" >  F  F  F </v>
   <v type="logical" >  F  F  F </v>
   <v type="logical" >  F  F  F </v>
   <v type="logical" >  F  F  F </v>
   <v type="logical" >  F  F  F </v>
   <v type="logical" >  F  F  F </v>
   <v type="logical" >  F  F  F </v>
   <v type="logical" >  F  F  F </v>
   <v type="logical" >  F  F  F </v>
   <v type="logical" >  F  F  F </v>
   <v type="logical" >  T  T  T </v>
   <v type="logical" >  T  T  T </v>
   <v type="logical" >  T  T  T </v>
   <v type="logical" >  T  T  T </v>
   <v type="logical" >  T  T  T </v>
   <v type="logical" >  T  T  T </v>
   <v type="logical" >  T  T  T </v>
   <v type="logical" >  T  T  T </v>
   <v type="logical" >  T  T  T </v>
   <v type="logical" >  T  T  T </v>
   <v type="logical" >  T  T  T </v>
   <v type="logical" >  T  T  T </v>
   <v type="logical" >  T  T  T </v>
   <v type="logical" >  T  T  T </v>
   <v type="logical" >  T  T  T </v>
   <v type="logical" >  T  T  T </v>
   <v type="logical" >  F  F  F </v>
   <v type="logical" >  F  F  F </v>
   <v type="logical" >  F  F  F </v>
   <v type="logical" >  F  F  F </v>
   <v type="logical" >  F  F  F </v>
   <v type="logical" >  F  F  F </v>
   <v type="logical" >  F  F  F </v>
   <v type="logical" >  F  F  F </v>
   <v type="logical" >  T  T  T </v>
   <v type="logical" >  T  T  T </v>
   <v type="logical" >  T  T  T </v>
   <v type="logical" >  T  T  T </v>
   <v type="logical" >  T  T  T </v>
   <v type="logical" >  T  T  T </v>
   <v type="logical" >  T  T  T </v>
   <v type="logical" >  T  T  T </v>
  </varray>
  <nose>
   <v>      -3.00000000       0.00000000       0.00010000       0.00010000 </v>
  </nose>
 </structure>
 <calculation>
  <scstep>
   <time name="dav">   34.50   34.50</time>
   <time name="total">   34.89   34.90</time>
   <energy>
    <i name="alphaZ">    513.34608474 </i>
    <i name="ewald">  40762.52406191 </i>
    <i name="hartreedc"> -55980.99402730 </i>
    <i name="XCdc">    777.84614778 </i>
    <i name="pawpsdc">  12959.03621870 </i>
    <i name="pawaedc"> -12758.55066129 </i>
    <i name="eentropy">     -0.00952408 </i>
    <i name="bandstr">   -241.24362738 </i>
    <i name="atom">  15983.01041930 </i>
    <i name="e_fr_energy">   2014.96509239 </i>
    <i name="e_wo_entrp">   2014.97461646 </i>
    <i name="e_0_energy">   2014.96985442 </i>
   </energy>
  </scstep>
  <scstep>
   <time name="dav">   40.28   40.29</time>
   <time name="total">   40.28   40.29</time>
   <energy>
    <i name="e_fr_energy">   -102.92846883 </i>
    <i name="e_wo_entrp">   -102.91934692 </i>
    <i name="e_0_energy">   -102.92390788 </i>
   </energy>
  </scstep>
  <scstep>
   <time name="dav">   41.09   41.09</time>
   <time name="total">   41.09   41.11</time>
   <energy>
    <i name="e_fr_energy">   -331.98860983 </i>
    <i name="e_wo_entrp">   -331.97947534 </i>
    <i name="e_0_energy">   -331.98404259 </i>
   </energy>
  </scstep>
  <scstep>
   <time name="dav">   40.42   40.42</time>
   <time name="total">   40.42   40.44</time>
   <energy>
    <i name="e_fr_energy">   -337.67175695 </i>
    <i name="e_wo_entrp">   -337.66144106 </i>
    <i name="e_0_energy">   -337.66659900 </i>
   </energy>
  </scstep>
  <scstep>
   <time name="dav">   43.26   43.26</time>
   <time name="total">   44.76   44.78</time>
   <energy>
    <i name="e_fr_energy">   -337.85247638 </i>
    <i name="e_wo_entrp">   -337.84218985 </i>
    <i name="e_0_energy">   -337.84733312 </i>
   </energy>
  </scstep>
  <scstep>
   <time name="diag">    6.29    6.29</time>
   <time name="diis">   22.54   22.55</time>
   <time name="orth">    0.90    0.90</time>
   <time name="total">   31.60   31.62</time>
   <energy>
    <i name="e_fr_energy">   -240.55733244 </i>
    <i name="e_wo_entrp">   -240.53790221 </i>
    <i name="e_0_energy">   -240.54761732 </i>
   </energy>
  </scstep>
  <scstep>
   <time name="diag">    6.27    6.27</time>
   <time name="diis">   22.78   22.78</time>
   <time name="orth">    0.90    0.90</time>
   <time name="total">   31.83   31.85</time>
   <energy>
    <i name="e_fr_energy">   -233.85348155 </i>
    <i name="e_wo_entrp">   -233.83277250 </i>
    <i name="e_0_energy">   -233.84312702 </i>
   </energy>
  </scstep>
  <scstep>
   <time name="diag">    6.27    6.27</time>
   <time name="diis">   22.58   22.59</time>
   <time name="orth">    0.90    0.90</time>
   <time name="total">   31.64   31.65</time>
   <energy>
    <i name="e_fr_energy">   -231.06903066 </i>
    <i name="e_wo_entrp">   -231.05616449 </i>
    <i name="e_0_energy">   -231.06259758 </i>
   </energy>
  </scstep>
  <scstep>
   <time name="diag">    6.28    6.28</time>
   <time name="diis">   22.65   22.65</time>
   <time name="orth">    0.90    0.90</time>
   <time name="total">   31.68   31.70</time>
   <energy>
    <i name="e_fr_energy">   -232.67332206 </i>
    <i name="e_wo_entrp">   -232.66399255 </i>
    <i name="e_0_energy">   -232.66865731 </i>
   </energy>
  </scstep>
  <scstep>
   <time name="diag">    6.30    6.30</time>
   <time name="diis">   22.84   22.85</time>
   <time name="orth">    0.90    0.90</time>
   <time name="total">   31.91   31.92</time>
   <energy>
    <i name="e_fr_energy">   -230.72054547 </i>
    <i name="e_wo_entrp">   -230.70913790 </i>
    <i name="e_0_energy">   -230.71484169 </i>
   </energy>
  </scstep>
  <scstep>
   <time name="diag">    6.33    6.33</time>
   <time name="diis">   22.72   22.72</time>
   <time name="orth">    0.90    0.90</time>
   <time name="total">   31.86   31.87</time>
   <energy>
    <i name="e_fr_energy">   -240.97646870 </i>
    <i name="e_wo_entrp">   -240.97320716 </i>
    <i name="e_0_energy">   -240.97483793 </i>
   </energy>
  </scstep>
  <scstep>
   <time name="diag">    6.32    6.32</time>
   <time name="diis">   22.73   22.73</time>
   <time name="orth">    0.90    0.90</time>
   <time name="total">   31.85   31.87</time>
   <energy>
    <i name="e_fr_energy">   -248.12368457 </i>
    <i name="e_wo_entrp">   -248.12024204 </i>
    <i name="e_0_energy">   -248.12196331 </i>
   </energy>
  </scstep>
  <scstep>
   <time name="diag">    6.33    6.33</time>
   <time name="diis">   22.93   22.93</time>
   <time name="orth">    0.90    0.90</time>
   <time name="total">   32.07   32.09</time>
   <energy>
    <i name="e_fr_energy">   -259.60154095 </i>
    <i name="e_wo_entrp">   -259.59188543 </i>
    <i name="e_0_energy">   -259.59671319 </i>
   </energy>
  </scstep>
  <scstep>
   <time name="diag">    6.33    6.33</time>
   <time name="diis">   22.85   22.85</time>
   <time name="orth">    0.90    0.90</time>
   <time name="total">   31.99   32.00</time>
   <energy>
    <i name="e_fr_energy">   -269.38388168 </i>
    <i name="e_wo_entrp">   -269.37308046 </i>
    <i name="e_0_energy">   -269.37848107 </i>
   </energy>
  </scstep>
  <scstep>
   <time name="diag">    6.33    6.33</time>
   <time name="diis">   22.78   22.78</time>
   <time name="orth">    0.90    0.90</time>
   <time name="total">   31.91   31.93</time>
   <energy>
    <i name="e_fr_energy">   -272.98211455 </i>
    <i name="e_wo_entrp">   -272.97313894 </i>
    <i name="e_0_energy">   -272.97762675 </i>
   </energy>
  </scstep>
  <scstep>
   <time name="diag">    6.32    6.32</time>
   <time name="diis">   22.71   22.71</time>
   <time name="orth">    0.90    0.90</time>
   <time name="total">   31.81   31.82</time>
   <energy>
    <i name="e_fr_energy">   -286.00824425 </i>
    <i name="e_wo_entrp">   -285.98344050 </i>
    <i name="e_0_energy">   -285.99584237 </i>
   </energy>
  </scstep>
  <scstep>
   <time name="diag">    6.32    6.32</time>
   <time name="diis">   22.69   22.70</time>
   <time name="orth">    0.90    0.90</time>
   <time name="total">   31.83   31.85</time>
   <energy>
    <i name="e_fr_energy">   -295.85202653 </i>
    <i name="e_wo_entrp">   -295.84903064 </i>
    <i name="e_0_energy">   -295.85052859 </i>
   </energy>
  </scstep>
  <scstep>
   <time name="diag">    6.86    6.86</time>
   <time name="diis">   22.80   22.80</time>
   <time name="orth">    0.90    0.90</time>
   <time name="total">   32.38   32.49</time>
   <energy>
    <i name="e_fr_energy">   -296.37511017 </i>
    <i name="e_wo_entrp">   -296.37015261 </i>
    <i name="e_0_energy">   -296.37263139 </i>
   </energy>
  </scstep>
  <scstep>
   <time name="diag">    6.32    6.32</time>
   <time name="diis">   22.72   22.72</time>
   <time name="orth">    0.90    0.90</time>
   <time name="total">   31.81   31.83</time>
   <energy>
    <i name="e_fr_energy">   -292.48448024 </i>
    <i name="e_wo_entrp">   -292.48024272 </i>
    <i name="e_0_energy">   -292.48236148 </i>
   </energy>
  </scstep>
  <scstep>
   <time name="diag">    6.32    6.32</time>
   <time name="diis">   22.75   22.75</time>
   <time name="orth">    0.90    0.90</time>
   <time name="total">   31.84   31.86</time>
   <energy>
    <i name="e_fr_energy">   -296.33471836 </i>
    <i name="e_wo_entrp">   -296.32829877 </i>
    <i name="e_0_energy">   -296.33150857 </i>
   </energy>
  </scstep>
  <scstep>
   <time name="diag">    6.33    6.33</time>
   <time name="diis">   22.78   22.78</time>
   <time name="orth">    0.90    0.90</time>
   <time name="total">   31.91   31.92</time>
   <energy>
    <i name="e_fr_energy">   -298.29031003 </i>
    <i name="e_wo_entrp">   -298.28008637 </i>
    <i name="e_0_energy">   -298.28519820 </i>
   </energy>
  </scstep>
  <scstep>
   <time name="diag">    6.33    6.33</time>
   <time name="diis">   22.66   22.66</time>
   <time name="orth">    0.90    0.90</time>
   <time name="total">   31.79   31.80</time>
   <energy>
    <i name="e_fr_energy">   -300.35050984 </i>
    <i name="e_wo_entrp">   -300.34363388 </i>
    <i name="e_0_energy">   -300.34707186 </i>
   </energy>
  </scstep>
  <scstep>
   <time name="diag">    6.32    6.32</time>
   <time name="diis">   22.78   22.78</time>
   <time name="orth">    0.90    0.90</time>
   <time name="total">   31.90   31.92</time>
   <energy>
    <i name="e_fr_energy">   -300.98315265 </i>
    <i name="e_wo_entrp">   -300.97728441 </i>
    <i name="e_0_energy">   -300.98021853 </i>
   </energy>
  </scstep>
  <scstep>
   <time name="diag">    6.33    6.33</time>
   <time name="diis">   22.66   22.67</time>
   <time name="orth">    0.90    0.90</time>
   <time name="total">   31.79   31.80</time>
   <energy>
    <i name="e_fr_energy">   -303.25258661 </i>
    <i name="e_wo_entrp">   -303.24443517 </i>
    <i name="e_0_energy">   -303.24851089 </i>
   </energy>
  </scstep>
  <scstep>
   <time name="diag">    6.33    6.34</time>
   <time name="diis">   22.62   22.62</time>
   <time name="orth">    0.90    0.90</time>
   <time name="total">   31.75   31.78</time>
   <energy>
    <i name="e_fr_energy">   -305.10410670 </i>
    <i name="e_wo_entrp">   -305.09390557 </i>
    <i name="e_0_energy">   -305.09900614 </i>
   </energy>
  </scstep>
  <scstep>
   <time name="diag">    6.27    6.27</time>
   <time name="diis">   23.56   23.56</time>
   <time name="orth">    0.90    0.90</time>
   <time name="total">   32.66   32.68</time>
   <energy>
    <i name="e_fr_energy">   -305.49376165 </i>
    <i name="e_wo_entrp">   -305.48484660 </i>
    <i name="e_0_energy">   -305.48930412 </i>
   </energy>
  </scstep>
  <scstep>
   <time name="diag">    6.27    6.27</time>
   <time name="diis">   23.67   23.67</time>
   <time name="orth">    0.90    0.90</time>
   <time name="total">   32.77   32.79</time>
   <energy>
    <i name="e_fr_energy">   -305.58578681 </i>
    <i name="e_wo_entrp">   -305.57646698 </i>
    <i name="e_0_energy">   -305.58112689 </i>
   </energy>
  </scstep>
  <scstep>
   <time name="diag">    6.27    6.27</time>
   <time name="diis">   22.99   22.99</time>
   <time name="orth">    0.90    0.90</time>
   <time name="total">   32.09   32.11</time>
   <energy>
    <i name="e_fr_energy">   -305.55770124 </i>
    <i name="e_wo_entrp">   -305.54881734 </i>
    <i name="e_0_energy">   -305.55325929 </i>
   </energy>
  </scstep>
  <scstep>
   <time name="diag">    6.27    6.27</time>
   <time name="diis">   22.64   22.65</time>
   <time name="orth">    0.90    0.90</time>
   <time name="total">   31.75   31.76</time>
   <energy>
    <i name="e_fr_energy">   -305.48551224 </i>
    <i name="e_wo_entrp">   -305.47627315 </i>
    <i name="e_0_energy">   -305.48089269 </i>
   </energy>
  </scstep>
  <scstep>
   <time name="diag">    6.27    6.27</time>
   <time name="diis">   23.19   23.19</time>
   <time name="orth">    0.90    0.90</time>
   <time name="total">   32.29   32.31</time>
   <energy>
    <i name="e_fr_energy">   -305.45765286 </i>
    <i name="e_wo_entrp">   -305.44683063 </i>
    <i name="e_0_energy">   -305.45224174 </i>
   </energy>
  </scstep>
  <scstep>
   <time name="diag">    6.27    6.27</time>
   <time name="diis">   22.58   22.58</time>
   <time name="orth">    0.90    0.90</time>
   <time name="total">   31.63   31.65</time>
   <energy>
    <i name="e_fr_energy">   -305.50748486 </i>
    <i name="e_wo_entrp">   -305.49656392 </i>
    <i name="e_0_energy">   -305.50202439 </i>
   </energy>
  </scstep>
  <scstep>
   <time name="diag">    6.28    6.28</time>
   <time name="diis">   22.72   22.72</time>
   <time name="orth">    0.90    0.90</time>
   <time name="total">   31.78   31.79</time>
   <energy>
    <i name="e_fr_energy">   -305.56678954 </i>
    <i name="e_wo_entrp">   -305.55784564 </i>
    <i name="e_0_energy">   -305.56231759 </i>
   </energy>
  </scstep>
  <scstep>
   <time name="diag">    6.28    6.29</time>
   <time name="diis">   22.72   22.72</time>
   <time name="orth">    0.90    0.90</time>
   <time name="total">   31.78   31.80</time>
   <energy>
    <i name="e_fr_energy">   -305.54858279 </i>
    <i name="e_wo_entrp">   -305.54002553 </i>
    <i name="e_0_energy">   -305.54430416 </i>
   </energy>
  </scstep>
  <scstep>
   <time name="diag">    6.28    6.28</time>
   <time name="diis">   22.06   22.06</time>
   <time name="orth">    0.90    0.90</time>
   <time name="total">   31.12   31.13</time>
   <energy>
    <i name="e_fr_energy">   -305.55888785 </i>
    <i name="e_wo_entrp">   -305.55334975 </i>
    <i name="e_0_energy">   -305.55611880 </i>
   </energy>
  </scstep>
  <scstep>
   <time name="diag">    6.28    6.28</time>
   <time name="diis">   22.57   22.58</time>
   <time name="orth">    0.90    0.90</time>
   <time name="total">   31.63   31.65</time>
   <energy>
    <i name="e_fr_energy">   -305.56609122 </i>
    <i name="e_wo_entrp">   -305.56076357 </i>
    <i name="e_0_energy">   -305.56342740 </i>
   </energy>
  </scstep>
  <scstep>
   <time name="diag">    6.32    6.32</time>
   <time name="diis">   22.67   22.67</time>
   <time name="orth">    0.90    0.90</time>
   <time name="total">   31.77   31.78</time>
   <energy>
    <i name="e_fr_energy">   -305.57224190 </i>
    <i name="e_wo_entrp">   -305.56698599 </i>
    <i name="e_0_energy">   -305.56961394 </i>
   </energy>
  </scstep>
  <scstep>
   <time name="diag">    6.33    6.33</time>
   <time name="diis">   21.71   21.71</time>
   <time name="orth">    0.89    0.90</time>
   <time name="total">   30.82   30.83</time>
   <energy>
    <i name="e_fr_energy">   -305.58503776 </i>
    <i name="e_wo_entrp">   -305.57977463 </i>
    <i name="e_0_energy">   -305.58240619 </i>
   </energy>
  </scstep>
  <scstep>
   <time name="diag">    6.32    6.32</time>
   <time name="diis">   20.59   20.59</time>
   <time name="orth">    0.90    0.90</time>
   <time name="total">   29.70   29.71</time>
   <energy>
    <i name="e_fr_energy">   -305.59304173 </i>
    <i name="e_wo_entrp">   -305.58776829 </i>
    <i name="e_0_energy">   -305.59040501 </i>
   </energy>
  </scstep>
  <scstep>
   <time name="diag">    6.32    6.32</time>
   <time name="diis">   20.23   20.24</time>
   <time name="orth">    0.90    0.90</time>
   <time name="total">   29.34   29.36</time>
   <energy>
    <i name="e_fr_energy">   -305.60257708 </i>
    <i name="e_wo_entrp">   -305.59728842 </i>
    <i name="e_0_energy">   -305.59993275 </i>
   </energy>
  </scstep>
  <scstep>
   <time name="diag">    6.32    6.33</time>
   <time name="diis">   16.04   16.04</time>
   <time name="orth">    0.89    0.89</time>
   <time name="total">   25.15   25.16</time>
   <energy>
    <i name="e_fr_energy">   -305.60540001 </i>
    <i name="e_wo_entrp">   -305.60010586 </i>
    <i name="e_0_energy">   -305.60275293 </i>
   </energy>
  </scstep>
  <scstep>
   <time name="diag">    6.31    6.31</time>
   <time name="diis">   15.77   15.77</time>
   <time name="orth">    0.90    0.90</time>
   <time name="total">   24.86   24.89</time>
   <energy>
    <i name="e_fr_energy">   -305.60573468 </i>
    <i name="e_wo_entrp">   -305.60044660 </i>
    <i name="e_0_energy">   -305.60309064 </i>
   </energy>
  </scstep>
  <scstep>
   <time name="diag">    6.31    6.31</time>
   <time name="diis">   15.25   15.25</time>
   <time name="orth">    0.90    0.90</time>
   <time name="total">   24.35   24.36</time>
   <energy>
    <i name="e_fr_energy">   -305.60605137 </i>
    <i name="e_wo_entrp">   -305.60076736 </i>
    <i name="e_0_energy">   -305.60340937 </i>
   </energy>
  </scstep>
  <scstep>
   <time name="diag">    6.33    6.33</time>
   <time name="diis">   16.13   16.13</time>
   <time name="orth">    0.90    0.90</time>
   <time name="total">   25.24   25.26</time>
   <energy>
    <i name="e_fr_energy">   -305.60687101 </i>
    <i name="e_wo_entrp">   -305.60159666 </i>
    <i name="e_0_energy">   -305.60423384 </i>
   </energy>
  </scstep>
  <scstep>
   <time name="diag">    6.31    6.31</time>
   <time name="diis">   15.26   15.26</time>
   <time name="orth">    0.90    0.90</time>
   <time name="total">   24.36   24.37</time>
   <energy>
    <i name="e_fr_energy">   -305.60742729 </i>
    <i name="e_wo_entrp">   -305.60215601 </i>
    <i name="e_0_energy">   -305.60479165 </i>
   </energy>
  </scstep>
  <scstep>
   <time name="diag">    6.31    6.31</time>
   <time name="diis">   15.25   15.25</time>
   <time name="orth">    0.90    0.90</time>
   <time name="total">   24.34   24.36</time>
   <energy>
    <i name="e_fr_energy">   -305.60769884 </i>
    <i name="e_wo_entrp">   -305.60243028 </i>
    <i name="e_0_energy">   -305.60506456 </i>
   </energy>
  </scstep>
  <scstep>
   <time name="diag">    6.28    6.28</time>
   <time name="diis">   14.28   14.28</time>
   <time name="orth">    0.90    0.90</time>
   <time name="total">   21.84   21.85</time>
   <energy>
    <i name="alphaZ">    513.34608474 </i>
    <i name="ewald">  40762.52406191 </i>
    <i name="hartreedc"> -56611.94621764 </i>
    <i name="XCdc">    809.76276477 </i>
    <i name="pawpsdc">  21077.70268483 </i>
    <i name="pawaedc"> -20894.15195701 </i>
    <i name="eentropy">     -0.00526923 </i>
    <i name="bandstr">  -1945.85030722 </i>
    <i name="atom">  15983.01041930 </i>
    <i name="e_fr_energy">   -305.60773555 </i>
    <i name="e_wo_entrp">   -305.60246632 </i>
    <i name="e_0_energy">   -305.60510094 </i>
   </energy>
  </scstep>
  <structure>
   <crystal>
    <varray name="basis" >
     <v>       0.00000000       0.00000000       5.84467938 </v>
     <v>       4.46847660      -4.46847660       0.00000000 </v>
     <v>      15.50630046      15.50630046       0.00000000 </v>
    </varray>
    <i name="volume">    809.95030024 </i>
    <varray name="rec_basis" >
     <v>       0.00000000       0.00000000       0.17109578 </v>
     <v>       0.11189496      -0.11189496       0.00000000 </v>
     <v>       0.03224496       0.03224496       0.00000000 </v>
    </varray>
   </crystal>
   <varray name="positions" >
    <v>       0.63086345       0.07004145       0.59205392 </v>
    <v>       0.13081166       0.56969810       0.00000000 </v>
    <v>       0.63081166       0.56969810       0.00000000 </v>
    <v>       0.38081166       0.26355810       0.05586496 </v>
    <v>       0.88081166       0.26355810       0.05586496 </v>
    <v>       0.38081166       0.87583810       0.05586496 </v>
    <v>       0.88081166       0.87583810       0.05586496 </v>
    <v>       0.13081166       0.56969810       0.11172992 </v>
    <v>       0.63081166       0.56969810       0.11172992 </v>
    <v>       0.13081166       0.06969810       0.14408584 </v>
    <v>       0.63081166       0.06969810       0.14408584 </v>
    <v>       0.38081166       0.37583810       0.19995080 </v>
    <v>       0.88081166       0.37583810       0.19995080 </v>
    <v>       0.38081166       0.76355810       0.19995080 </v>
    <v>       0.88081166       0.76355810       0.19995080 </v>
    <v>       0.13081166       0.06969810       0.25581576 </v>
    <v>       0.63081166       0.06969810       0.25581576 </v>
    <v>       0.13071715       0.56964676       0.28686280 </v>
    <v>       0.63073812       0.56964014       0.28838734 </v>
    <v>       0.38107573       0.26598300       0.34360789 </v>
    <v>       0.88044851       0.26599078       0.34361739 </v>
    <v>       0.38109789       0.87310486       0.34361061 </v>
    <v>       0.88044992       0.87311160       0.34361779 </v>
    <v>       0.13078567       0.56970984       0.39762397 </v>
    <v>       0.63076781       0.56964553       0.40001068 </v>
    <v>       0.13075638       0.06975938       0.43308537 </v>
    <v>       0.63078149       0.06973206       0.43341903 </v>
    <v>       0.36788306       0.37915356       0.49481918 </v>
    <v>       0.89399477       0.37920560       0.49484199 </v>
    <v>       0.36796855       0.76046601       0.49483763 </v>
    <v>       0.89412900       0.76043525       0.49486663 </v>
    <v>       0.13089344       0.06993796       0.54778510 </v>
    <v>       0.63085914       0.06992240       0.54645268 </v>
    <v>       0.13081166       0.06969810       0.05586496 </v>
    <v>       0.63081166       0.06969810       0.05586496 </v>
    <v>       0.38081166       0.56969810       0.05586496 </v>
    <v>       0.88081166       0.56969810       0.05586496 </v>
    <v>       0.38081166       0.06969810       0.19995080 </v>
    <v>       0.88081166       0.06969810       0.19995080 </v>
    <v>       0.13081166       0.56969810       0.19995080 </v>
    <v>       0.63081166       0.56969810       0.19995080 </v>
    <v>       0.13077278       0.06953496       0.34693964 </v>
    <v>       0.63077284       0.06955335       0.34704099 </v>
    <v>       0.37856086       0.56952065       0.34130311 </v>
    <v>       0.88290640       0.56953722       0.34131353 </v>
    <v>       0.37921435       0.06982921       0.49633010 </v>
    <v>       0.88249443       0.06975389       0.49633617 </v>
    <v>       0.13097103       0.56977573       0.48178499 </v>
    <v>       0.63109853       0.56981433       0.48708492 </v>
   </varray>
  </structure>
  <varray name="forces" >
   <v>      -0.85047882      -0.84875603       0.00077618 </v>
   <v>       0.75272060       0.75139926       0.00077301 </v>
   <v>       0.75113596       0.74981754       0.00078767 </v>
   <v>      -1.78618364       0.39064413      -0.00184771 </v>
   <v>      -1.78618566       0.39064928       0.00026253 </v>
   <v>       0.39194567      -1.78362776      -0.00131714 </v>
   <v>       0.39195474      -1.78362389       0.00078863 </v>
   <v>       1.08090840       1.07862569      -0.00317044 </v>
   <v>       1.08287059       1.08058159      -0.00324756 </v>
   <v>      -0.33998356      -0.34310337       0.00013023 </v>
   <v>      -0.34879803      -0.35190507      -0.00000537 </v>
   <v>       0.02736760       0.13472402       0.03874759 </v>
   <v>       0.02691764       0.13465320      -0.03891040 </v>
   <v>       0.13464052       0.02888813       0.03790330 </v>
   <v>       0.13462722       0.02848619      -0.03973854 </v>
   <v>       0.22748428       0.22559151      -0.00197083 </v>
   <v>       0.23186083       0.22976294      -0.00129521 </v>
   <v>       0.11144263       0.11208649       0.00042249 </v>
   <v>      -0.10987163      -0.11050070       0.00003438 </v>
   <v>      -0.11561014       0.31780649       0.05947901 </v>
   <v>      -0.11617406       0.31731307      -0.05991313 </v>
   <v>       0.32008000      -0.11597134       0.05875265 </v>
   <v>       0.31924058      -0.11505049      -0.06064807 </v>
   <v>       0.15796610       0.15812313      -0.00161539 </v>
   <v>      -0.88834524      -0.88566708      -0.00226055 </v>
   <v>       0.27976435       0.27744325       0.00149746 </v>
   <v>       1.89626333       1.89108159       0.00442620 </v>
   <v>      -0.51575357       0.99389110      -0.19287530 </v>
   <v>      -0.52289686       1.01084045       0.21244070 </v>
   <v>       0.99758411      -0.51834862      -0.20573394 </v>
   <v>       1.00624948      -0.51834177       0.19760882 </v>
   <v>       0.64035316       0.64074710      -0.00247039 </v>
   <v>       2.16824376       2.16636492       0.00213284 </v>
   <v>       1.92817244       1.93048969       0.00006539 </v>
   <v>       1.93428801       1.93659951       0.00006251 </v>
   <v>      -2.21722407      -2.21367578       0.00407888 </v>
   <v>      -2.21721587      -2.21366502      -0.00340232 </v>
   <v>       0.38934913       0.39302382       0.02645351 </v>
   <v>       0.38936584       0.39295014      -0.02404062 </v>
   <v>      -0.70326980      -0.70079307      -0.00022552 </v>
   <v>      -0.55658924      -0.55407841       0.00053972 </v>
   <v>      -0.26477688      -0.26564102      -0.00041220 </v>
   <v>      -0.77025451      -0.76921366      -0.00055218 </v>
   <v>       0.22855298       0.22715923       0.54036761 </v>
   <v>       0.22634890       0.22691246      -0.53801827 </v>
   <v>      -2.20698242      -2.20048923      -3.26429233 </v>
   <v>      -2.20062458      -2.20594049       3.26790643 </v>
   <v>      -0.37296017      -0.37413679       0.01784199 </v>
   <v>       0.66247988       0.65587370      -0.02631630 </v>
  </varray>
  <varray name="stress" >
   <v>      13.41731543     -10.74108067      -0.03246673 </v>
   <v>     -10.74108063      13.46071583       0.04907544 </v>
   <v>      -0.03246675       0.04907550      18.08798078 </v>
  </varray>
  <energy>
   <i name="e_fr_energy">   -313.91480822 </i>
   <i name="e_wo_entrp">   -313.91217361 </i>
   <i name="e_0_energy">     -0.00526923 </i>
  </energy>
  <time name="totalsc"> 1492.61 1493.49</time>
 </calculation>
 <calculation>
  <scstep>
   <time name="dav">   36.49   36.50</time>
   <time name="total">   38.37   38.38</time>
   <energy>
    <i name="alphaZ">    513.34608474 </i>
    <i name="ewald">  40710.45991918 </i>
    <i name="hartreedc"> -56560.04627325 </i>
    <i name="XCdc">    809.75859629 </i>
    <i name="pawpsdc">  21077.69292560 </i>
    <i name="pawaedc"> -20894.14262074 </i>
    <i name="eentropy">     -0.00536603 </i>
    <i name="bandstr">  -1946.16492599 </i>
    <i name="atom">  15983.01041930 </i>
    <i name="e_fr_energy">   -306.09124091 </i>
    <i name="e_wo_entrp">   -306.08587488 </i>
    <i name="e_0_energy">   -306.08855790 </i>
   </energy>
  </scstep>
  <scstep>
   <time name="diag">    6.31    6.31</time>
   <time name="diis">   22.49   22.50</time>
   <time name="orth">    0.90    0.90</time>
   <time name="total">   31.57   31.58</time>
   <energy>
    <i name="e_fr_energy">   -306.10620443 </i>
    <i name="e_wo_entrp">   -306.10087444 </i>
    <i name="e_0_energy">   -306.10353943 </i>
   </energy>
  </scstep>
  <scstep>
   <time name="diag">    6.31    6.31</time>
   <time name="diis">   22.67   22.67</time>
   <time name="orth">    0.90    0.90</time>
   <time name="total">   31.75   31.76</time>
   <energy>
    <i name="e_fr_energy">   -306.09522651 </i>
    <i name="e_wo_entrp">   -306.08988285 </i>
    <i name="e_0_energy">   -306.09255468 </i>
   </energy>
  </scstep>
  <scstep>
   <time name="diag">    6.31    6.31</time>
   <time name="diis">   20.38   20.38</time>
   <time name="orth">    0.90    0.90</time>
   <time name="total">   29.46   29.47</time>
   <energy>
    <i name="e_fr_energy">   -306.09550480 </i>
    <i name="e_wo_entrp">   -306.09016107 </i>
    <i name="e_0_energy">   -306.09283294 </i>
   </energy>
  </scstep>
  <scstep>
   <time name="diag">    6.31    6.31</time>
   <time name="diis">   21.37   21.37</time>
   <time name="orth">    0.90    0.90</time>
   <time name="total">   30.44   30.46</time>
   <energy>
    <i name="e_fr_energy">   -306.10026526 </i>
    <i name="e_wo_entrp">   -306.09491100 </i>
    <i name="e_0_energy">   -306.09758813 </i>
   </energy>
  </scstep>
  <scstep>
   <time name="diag">    6.31    6.31</time>
   <time name="diis">   22.43   22.44</time>
   <time name="orth">    0.90    0.90</time>
   <time name="total">   31.51   31.53</time>
   <energy>
    <i name="e_fr_energy">   -306.09346688 </i>
    <i name="e_wo_entrp">   -306.08815658 </i>
    <i name="e_0_energy">   -306.09081173 </i>
   </energy>
  </scstep>
  <scstep>
   <time name="diag">    6.31    6.31</time>
   <time name="diis">   22.56   22.57</time>
   <time name="orth">    0.90    0.90</time>
   <time name="total">   31.65   31.83</time>
   <energy>
    <i name="e_fr_energy">   -306.09667729 </i>
    <i name="e_wo_entrp">   -306.09136836 </i>
    <i name="e_0_energy">   -306.09402282 </i>
   </energy>
  </scstep>
  <scstep>
   <time name="diag">    6.31    6.31</time>
   <time name="diis">   21.21   21.21</time>
   <time name="orth">    0.90    0.90</time>
   <time name="total">   30.29   30.31</time>
   <energy>
    <i name="e_fr_energy">   -306.09236725 </i>
    <i name="e_wo_entrp">   -306.08705200 </i>
    <i name="e_0_energy">   -306.08970962 </i>
   </energy>
  </scstep>
  <scstep>
   <time name="diag">    6.31    6.31</time>
   <time name="diis">   21.99   21.99</time>
   <time name="orth">    0.90    0.90</time>
   <time name="total">   31.08   31.09</time>
   <energy>
    <i name="e_fr_energy">   -306.08910613 </i>
    <i name="e_wo_entrp">   -306.08378128 </i>
    <i name="e_0_energy">   -306.08644371 </i>
   </energy>
  </scstep>
  <scstep>
   <time name="diag">    6.31    6.31</time>
   <time name="diis">   21.38   21.38</time>
   <time name="orth">    0.90    0.90</time>
   <time name="total">   30.46   30.47</time>
   <energy>
    <i name="e_fr_energy">   -306.08832923 </i>
    <i name="e_wo_entrp">   -306.08299627 </i>
    <i name="e_0_energy">   -306.08566275 </i>
   </energy>
  </scstep>
  <scstep>
   <time name="diag">    6.31    6.31</time>
   <time name="diis">   20.03   20.03</time>
   <time name="orth">    0.90    0.90</time>
   <time name="total">   27.62   27.63</time>
   <energy>
    <i name="alphaZ">    513.34608474 </i>
    <i name="ewald">  40710.45991918 </i>
    <i name="hartreedc"> -56540.84601216 </i>
    <i name="XCdc">    809.79720778 </i>
    <i name="pawpsdc">  21035.40245540 </i>
    <i name="pawaedc"> -20851.72790453 </i>
    <i name="eentropy">     -0.00533713 </i>
    <i name="bandstr">  -1965.52515385 </i>
    <i name="atom">  15983.01041930 </i>
    <i name="e_fr_energy">   -306.08832127 </i>
    <i name="e_wo_entrp">   -306.08298414 </i>
    <i name="e_0_energy">   -306.08565271 </i>
   </energy>
  </scstep>
  <structure>
   <crystal>
    <varray name="basis" >
     <v>       0.00000000       0.00000000       5.84467938 </v>
     <v>       4.46847660      -4.46847660       0.00000000 </v>
     <v>      15.50630046      15.50630046       0.00000000 </v>
    </varray>
    <i name="volume">    809.95030024 </i>
    <varray name="rec_basis" >
     <v>       0.00000000       0.00000000       0.17109578 </v>
     <v>       0.11189496      -0.11189496       0.00000000 </v>
     <v>       0.03224496       0.03224496       0.00000000 </v>
    </varray>
   </crystal>
   <varray name="positions" >
    <v>       0.63086473       0.07003959       0.59152526 </v>
    <v>       0.13081166       0.56969810       0.00000000 </v>
    <v>       0.63081166       0.56969810       0.00000000 </v>
    <v>       0.38081166       0.26355810       0.05586496 </v>
    <v>       0.88081166       0.26355810       0.05586496 </v>
    <v>       0.38081166       0.87583810       0.05586496 </v>
    <v>       0.88081166       0.87583810       0.05586496 </v>
    <v>       0.13081166       0.56969810       0.11172992 </v>
    <v>       0.63081166       0.56969810       0.11172992 </v>
    <v>       0.13081166       0.06969810       0.14408584 </v>
    <v>       0.63081166       0.06969810       0.14408584 </v>
    <v>       0.38081166       0.37583810       0.19995080 </v>
    <v>       0.88081166       0.37583810       0.19995080 </v>
    <v>       0.38081166       0.76355810       0.19995080 </v>
    <v>       0.88081166       0.76355810       0.19995080 </v>
    <v>       0.13081166       0.06969810       0.25581576 </v>
    <v>       0.63081166       0.06969810       0.25581576 </v>
    <v>       0.13071785       0.56964606       0.28693234 </v>
    <v>       0.63073818       0.56964082       0.28831878 </v>
    <v>       0.38117392       0.26551508       0.34367079 </v>
    <v>       0.88034960       0.26552278       0.34367997 </v>
    <v>       0.38119488       0.87357563       0.34367411 </v>
    <v>       0.88034980       0.87358047       0.34368131 </v>
    <v>       0.13078301       0.56970967       0.39772231 </v>
    <v>       0.63076408       0.56964264       0.39945876 </v>
    <v>       0.13075886       0.06976188       0.43325873 </v>
    <v>       0.63078880       0.06973765       0.43459733 </v>
    <v>       0.36756466       0.37752371       0.49496794 </v>
    <v>       0.89434547       0.37754975       0.49499380 </v>
    <v>       0.36762892       0.76210264       0.49498672 </v>
    <v>       0.89445522       0.76208124       0.49501842 </v>
    <v>       0.13088936       0.06993753       0.54818368 </v>
    <v>       0.63086266       0.06992443       0.54780125 </v>
    <v>       0.13081166       0.06969810       0.05586496 </v>
    <v>       0.63081166       0.06969810       0.05586496 </v>
    <v>       0.38081166       0.56969810       0.05586496 </v>
    <v>       0.88081166       0.56969810       0.05586496 </v>
    <v>       0.38081166       0.06969810       0.19995080 </v>
    <v>       0.88081166       0.06969810       0.19995080 </v>
    <v>       0.13081166       0.56969810       0.19995080 </v>
    <v>       0.63081166       0.56969810       0.19995080 </v>
    <v>       0.13077210       0.06953589       0.34677462 </v>
    <v>       0.63077193       0.06955222       0.34656204 </v>
    <v>       0.37945291       0.56952216       0.34144489 </v>
    <v>       0.88201822       0.56953661       0.34145455 </v>
    <v>       0.37382558       0.06982220       0.49495887 </v>
    <v>       0.88788917       0.06975963       0.49496522 </v>
    <v>       0.13100048       0.56977700       0.48155256 </v>
    <v>       0.63105509       0.56982146       0.48749508 </v>
   </varray>
  </structure>
  <varray name="forces" >
   <v>       0.45702993       0.45668788       0.00099232 </v>
   <v>       0.77036423       0.76884523       0.00078722 </v>
   <v>       0.76872776       0.76721558       0.00080474 </v>
   <v>      -1.77723357       0.40152882      -0.00119712 </v>
   <v>      -1.77722001       0.40152809      -0.00034833 </v>
   <v>       0.40303418      -1.77486073      -0.00065896 </v>
   <v>       0.40303241      -1.77485345       0.00016896 </v>
   <v>       1.10493661       1.10244948      -0.00316969 </v>
   <v>       1.10587218       1.10338832      -0.00322582 </v>
   <v>      -0.31209904      -0.31540927       0.00013825 </v>
   <v>      -0.31178321      -0.31507308       0.00002553 </v>
   <v>       0.02560637       0.15827207       0.04258638 </v>
   <v>       0.02517972       0.15819824      -0.04271286 </v>
   <v>       0.15840523       0.02691960       0.04174249 </v>
   <v>       0.15838733       0.02654325      -0.04353135 </v>
   <v>       0.24289863       0.24082498      -0.00197332 </v>
   <v>       0.23813750       0.23586829      -0.00128001 </v>
   <v>       0.15355424       0.15325720       0.00120761 </v>
   <v>      -0.13647451      -0.13631896      -0.00001361 </v>
   <v>      -0.07277625       0.29944311       0.02330875 </v>
   <v>      -0.07361418       0.29767805      -0.02447730 </v>
   <v>       0.30061277      -0.07320172       0.02304638 </v>
   <v>       0.29900326      -0.07271844      -0.02447047 </v>
   <v>       0.00062578       0.00024242      -0.00073239 </v>
   <v>      -0.44899319      -0.44883577      -0.00360370 </v>
   <v>      -0.06304637      -0.06543431       0.00417623 </v>
   <v>       1.28319712       1.27953438       0.00461897 </v>
   <v>      -0.29896145       0.59396826      -0.22200083 </v>
   <v>      -0.30212071       0.60200554       0.23412651 </v>
   <v>       0.59650815      -0.30046729      -0.23045197 </v>
   <v>       0.59664524      -0.29920742       0.22199820 </v>
   <v>       0.39073996       0.39192193      -0.00166599 </v>
   <v>      -0.11216352      -0.11199544       0.00086954 </v>
   <v>       1.89827386       1.90038660       0.00008635 </v>
   <v>       1.90137415       1.90348709       0.00007966 </v>
   <v>      -2.24234668      -2.23899653       0.00434467 </v>
   <v>      -2.24234081      -2.23898618      -0.00362894 </v>
   <v>       0.33617462       0.33962892       0.00558541 </v>
   <v>       0.33619260       0.33956896      -0.00312710 </v>
   <v>      -0.69706484      -0.69475746      -0.00019146 </v>
   <v>      -0.58994866      -0.58761799       0.00054039 </v>
   <v>      -0.34382393      -0.34479665      -0.00070864 </v>
   <v>      -0.43356187      -0.43353691      -0.00047292 </v>
   <v>       0.19092205       0.19041182       0.33106534 </v>
   <v>       0.18947263       0.19057044      -0.33084934 </v>
   <v>      -1.14623427      -1.14227361      -1.46832236 </v>
   <v>      -1.14151485      -1.14631444       1.47275181 </v>
   <v>      -0.11733914      -0.11804441       0.00573008 </v>
   <v>       0.30575253       0.30332551      -0.00796732 </v>
  </varray>
  <varray name="stress" >
   <v>      13.72934573     -10.38785940      -0.02554234 </v>
   <v>     -10.38785934      13.78535184       0.03825274 </v>
   <v>      -0.02554235       0.03825277      12.84535234 </v>
  </varray>
  <energy>
   <i name="e_fr_energy">   -314.39905785 </i>
   <i name="e_wo_entrp">   -314.39638928 </i>
   <i name="e_0_energy">     -0.00533713 </i>
  </energy>
  <time name="totalsc">  387.57  387.95</time>
 </calculation>
 <calculation>
  <scstep>
   <time name="dav">   36.41   36.41</time>
   <time name="total">   38.28   38.29</time>
   <energy>
    <i name="alphaZ">    513.34608474 </i>
    <i name="ewald">  40672.38611872 </i>
    <i name="hartreedc"> -56502.92761231 </i>
    <i name="XCdc">    809.79975037 </i>
    <i name="pawpsdc">  21037.45142314 </i>
    <i name="pawaedc"> -20853.77615045 </i>
    <i name="eentropy">     -0.00541724 </i>
    <i name="bandstr">  -1965.48680540 </i>
    <i name="atom">  15983.01041930 </i>
    <i name="e_fr_energy">   -306.20218914 </i>
    <i name="e_wo_entrp">   -306.19677190 </i>
    <i name="e_0_energy">   -306.19948052 </i>
   </energy>
  </scstep>
  <scstep>
   <time name="diag">    6.35    6.35</time>
   <time name="diis">   22.47   22.47</time>
   <time name="orth">    0.90    0.90</time>
   <time name="total">   31.59   31.60</time>
   <energy>
    <i name="e_fr_energy">   -306.20667558 </i>
    <i name="e_wo_entrp">   -306.20127898 </i>
    <i name="e_0_energy">   -306.20397728 </i>
   </energy>
  </scstep>
  <scstep>
   <time name="diag">    6.36    6.36</time>
   <time name="diis">   22.36   22.36</time>
   <time name="orth">    0.90    0.90</time>
   <time name="total">   31.49   31.50</time>
   <energy>
    <i name="e_fr_energy">   -306.20015166 </i>
    <i name="e_wo_entrp">   -306.19474294 </i>
    <i name="e_0_energy">   -306.19744730 </i>
   </energy>
  </scstep>
  <scstep>
   <time name="diag">    6.35    6.35</time>
   <time name="diis">   20.35   20.35</time>
   <time name="orth">    0.90    0.90</time>
   <time name="total">   29.47   29.48</time>
   <energy>
    <i name="e_fr_energy">   -306.19860800 </i>
    <i name="e_wo_entrp">   -306.19319950 </i>
    <i name="e_0_energy">   -306.19590375 </i>
   </energy>
  </scstep>
  <scstep>
   <time name="diag">    6.35    6.35</time>
   <time name="diis">   21.87   21.87</time>
   <time name="orth">    0.90    0.90</time>
   <time name="total">   30.99   31.00</time>
   <energy>
    <i name="e_fr_energy">   -306.19593107 </i>
    <i name="e_wo_entrp">   -306.19052076 </i>
    <i name="e_0_energy">   -306.19322592 </i>
   </energy>
  </scstep>
  <scstep>
   <time name="diag">    6.35    6.35</time>
   <time name="diis">   18.03   18.03</time>
   <time name="orth">    0.90    0.90</time>
   <time name="total">   25.65   25.67</time>
   <energy>
    <i name="alphaZ">    513.34608474 </i>
    <i name="ewald">  40672.38611872 </i>
    <i name="hartreedc"> -56489.43342052 </i>
    <i name="XCdc">    809.83846813 </i>
    <i name="pawpsdc">  21018.06686244 </i>
    <i name="pawaedc"> -20834.31505445 </i>
    <i name="eentropy">     -0.00540956 </i>
    <i name="bandstr">  -1979.08995557 </i>
    <i name="atom">  15983.01041930 </i>
    <i name="e_fr_energy">   -306.19588676 </i>
    <i name="e_wo_entrp">   -306.19047721 </i>
    <i name="e_0_energy">   -306.19318199 </i>
   </energy>
  </scstep>
  <structure>
   <crystal>
    <varray name="basis" >
     <v>       0.00000000       0.00000000       5.84467938 </v>
     <v>       4.46847660      -4.46847660       0.00000000 </v>
     <v>      15.50630046      15.50630046       0.00000000 </v>
    </varray>
    <i name="volume">    809.95030024 </i>
    <varray name="rec_basis" >
     <v>       0.00000000       0.00000000       0.17109578 </v>
     <v>       0.11189496      -0.11189496       0.00000000 </v>
     <v>       0.03224496       0.03224496       0.00000000 </v>
    </varray>
   </crystal>
   <varray name="positions" >
    <v>       0.63086569       0.07003820       0.59113053 </v>
    <v>       0.13081166       0.56969810       0.00000000 </v>
    <v>       0.63081166       0.56969810       0.00000000 </v>
    <v>       0.38081166       0.26355810       0.05586496 </v>
    <v>       0.88081166       0.26355810       0.05586496 </v>
    <v>       0.38081166       0.87583810       0.05586496 </v>
    <v>       0.88081166       0.87583810       0.05586496 </v>
    <v>       0.13081166       0.56969810       0.11172992 </v>
    <v>       0.63081166       0.56969810       0.11172992 </v>
    <v>       0.13081166       0.06969810       0.14408584 </v>
    <v>       0.63081166       0.06969810       0.14408584 </v>
    <v>       0.38081166       0.37583810       0.19995080 </v>
    <v>       0.88081166       0.37583810       0.19995080 </v>
    <v>       0.38081166       0.76355810       0.19995080 </v>
    <v>       0.88081166       0.76355810       0.19995080 </v>
    <v>       0.13081166       0.06969810       0.25581576 </v>
    <v>       0.63081166       0.06969810       0.25581576 </v>
    <v>       0.13071837       0.56964554       0.28698427 </v>
    <v>       0.63073822       0.56964132       0.28826759 </v>
    <v>       0.38124724       0.26516569       0.34371776 </v>
    <v>       0.88027575       0.26517333       0.34372669 </v>
    <v>       0.38126730       0.87392714       0.34372152 </v>
    <v>       0.88027504       0.87393056       0.34372875 </v>
    <v>       0.13078102       0.56970954       0.39779574 </v>
    <v>       0.63076129       0.56964048       0.39904666 </v>
    <v>       0.13076070       0.06976375       0.43338817 </v>
    <v>       0.63079426       0.06974183       0.43547713 </v>
    <v>       0.36732692       0.37630677       0.49507901 </v>
    <v>       0.89460733       0.37631338       0.49510715 </v>
    <v>       0.36737533       0.76332466       0.49509805 </v>
    <v>       0.89469879       0.76331023       0.49513176 </v>
    <v>       0.13088631       0.06993721       0.54848127 </v>
    <v>       0.63086529       0.06992594       0.54880818 </v>
    <v>       0.13081166       0.06969810       0.05586496 </v>
    <v>       0.63081166       0.06969810       0.05586496 </v>
    <v>       0.38081166       0.56969810       0.05586496 </v>
    <v>       0.88081166       0.56969810       0.05586496 </v>
    <v>       0.38081166       0.06969810       0.19995080 </v>
    <v>       0.88081166       0.06969810       0.19995080 </v>
    <v>       0.13081166       0.56969810       0.19995080 </v>
    <v>       0.63081166       0.56969810       0.19995080 </v>
    <v>       0.13077159       0.06953658       0.34665140 </v>
    <v>       0.63077125       0.06955138       0.34620442 </v>
    <v>       0.38011897       0.56952328       0.34155075 </v>
    <v>       0.88135506       0.56953616       0.34155984 </v>
    <v>       0.36980198       0.06981697       0.49393501 </v>
    <v>       0.89191723       0.06976391       0.49394158 </v>
    <v>       0.13102248       0.56977795       0.48137901 </v>
    <v>       0.63102265       0.56982679       0.48780134 </v>
   </varray>
  </structure>
  <varray name="forces" >
   <v>       1.74548597       1.74285128       0.00125777 </v>
   <v>       0.77948181       0.77774929       0.00103651 </v>
   <v>       0.77781182       0.77606695       0.00104031 </v>
   <v>      -1.77527646       0.40579792      -0.00057840 </v>
   <v>      -1.77527665       0.40579663      -0.00048716 </v>
   <v>       0.40754804      -1.77316143      -0.00005158 </v>
   <v>       0.40755112      -1.77316218       0.00004416 </v>
   <v>       1.11767730       1.11493738      -0.00292330 </v>
   <v>       1.11784440       1.11509936      -0.00298539 </v>
   <v>      -0.29712669      -0.30069348       0.00038021 </v>
   <v>      -0.29062523      -0.29417721       0.00026332 </v>
   <v>       0.01923949       0.16798562       0.04490647 </v>
   <v>       0.01880893       0.16793500      -0.04456776 </v>
   <v>       0.16838740       0.02030333       0.04406178 </v>
   <v>       0.16836970       0.01993066      -0.04537535 </v>
   <v>       0.24697434       0.24468591      -0.00174901 </v>
   <v>       0.23292704       0.23042926      -0.00109112 </v>
   <v>       0.18020061       0.17978327       0.00169134 </v>
   <v>      -0.16004046      -0.16083220      -0.00023411 </v>
   <v>      -0.03825593       0.27873196      -0.00091263 </v>
   <v>      -0.03923730       0.27757573       0.00111781 </v>
   <v>       0.27900541      -0.03972643      -0.00190516 </v>
   <v>       0.27827470      -0.03955560       0.00105475 </v>
   <v>      -0.11518172      -0.11650942      -0.00054599 </v>
   <v>      -0.13278279      -0.13301158      -0.00319410 </v>
   <v>      -0.38943807      -0.39218416       0.00630712 </v>
   <v>       0.87661530       0.87214430       0.00242303 </v>
   <v>      -0.13214189       0.31940543      -0.22898573 </v>
   <v>      -0.12821140       0.32012336       0.23389840 </v>
   <v>       0.32051487      -0.13199087      -0.23762243 </v>
   <v>       0.31337053      -0.12639411       0.22605338 </v>
   <v>       0.22114939       0.22640948      -0.00148023 </v>
   <v>      -1.90847004      -1.90184031      -0.00097730 </v>
   <v>       1.87706566       1.87892463       0.00032695 </v>
   <v>       1.87812419       1.87998367       0.00032315 </v>
   <v>      -2.26136677      -2.25826875       0.00476900 </v>
   <v>      -2.26135934      -2.25825728      -0.00357150 </v>
   <v>       0.29803318       0.30121397      -0.00936820 </v>
   <v>       0.29805381       0.30116050       0.01231587 </v>
   <v>      -0.69165746      -0.68958139       0.00005687 </v>
   <v>      -0.61345571      -0.61136014       0.00077332 </v>
   <v>      -0.41158941      -0.41294464      -0.00074652 </v>
   <v>      -0.21901659      -0.21985434       0.00067377 </v>
   <v>       0.15667615       0.15596333       0.16980463 </v>
   <v>       0.15540229       0.15585360      -0.16925021 </v>
   <v>      -0.41858157      -0.41517706      -0.26592274 </v>
   <v>      -0.41260522      -0.41885756       0.26742635 </v>
   <v>       0.06911066       0.06867629      -0.00210556 </v>
   <v>       0.06199258       0.06202204       0.00462522 </v>
  </varray>
  <varray name="stress" >
   <v>      14.68394663      -9.58130308      -0.01421451 </v>
   <v>      -9.58130301      14.75632473       0.02680086 </v>
   <v>      -0.01421451       0.02680085      10.60589930 </v>
  </varray>
  <energy>
   <i name="e_fr_energy">   -314.50933051 </i>
   <i name="e_wo_entrp">   -314.50662573 </i>
   <i name="e_0_energy">     -0.00540956 </i>
  </energy>
  <time name="totalsc">  230.95  231.18</time>
 </calculation>
 <calculation>
  <scstep>
   <time name="dav">   36.18   36.19</time>
   <time name="total">   38.05   38.06</time>
   <energy>
    <i name="alphaZ">    513.34608474 </i>
    <i name="ewald">  40679.19288233 </i>
    <i name="hartreedc"> -56497.59869401 </i>
    <i name="XCdc">    809.74873583 </i>
    <i name="pawpsdc">  21017.84645260 </i>
    <i name="pawaedc"> -20834.09305225 </i>
    <i name="eentropy">     -0.00544726 </i>
    <i name="bandstr">  -1977.73443501 </i>
    <i name="atom">  15983.01041930 </i>
    <i name="e_fr_energy">   -306.28705374 </i>
    <i name="e_wo_entrp">   -306.28160647 </i>
    <i name="e_0_energy">   -306.28433011 </i>
   </energy>
  </scstep>
  <scstep>
   <time name="diag">    6.31    6.31</time>
   <time name="diis">   22.50   22.51</time>
   <time name="orth">    0.90    0.90</time>
   <time name="total">   31.59   31.59</time>
   <energy>
    <i name="e_fr_energy">   -306.30666007 </i>
    <i name="e_wo_entrp">   -306.30121327 </i>
    <i name="e_0_energy">   -306.30393667 </i>
   </energy>
  </scstep>
  <scstep>
   <time name="diag">    6.31    6.31</time>
   <time name="diis">   21.95   21.95</time>
   <time name="orth">    0.90    0.90</time>
   <time name="total">   31.03   31.05</time>
   <energy>
    <i name="e_fr_energy">   -306.30352279 </i>
    <i name="e_wo_entrp">   -306.29806787 </i>
    <i name="e_0_energy">   -306.30079533 </i>
   </energy>
  </scstep>
  <scstep>
   <time name="diag">    6.31    6.31</time>
   <time name="diis">   19.32   19.32</time>
   <time name="orth">    0.90    0.90</time>
   <time name="total">   28.40   28.41</time>
   <energy>
    <i name="e_fr_energy">   -306.30296396 </i>
    <i name="e_wo_entrp">   -306.29750809 </i>
    <i name="e_0_energy">   -306.30023603 </i>
   </energy>
  </scstep>
  <scstep>
   <time name="diag">    6.31    6.31</time>
   <time name="diis">   21.57   21.58</time>
   <time name="orth">    0.90    0.90</time>
   <time name="total">   30.65   30.66</time>
   <energy>
    <i name="e_fr_energy">   -306.30199301 </i>
    <i name="e_wo_entrp">   -306.29652351 </i>
    <i name="e_0_energy">   -306.29925826 </i>
   </energy>
  </scstep>
  <scstep>
   <time name="diag">    6.32    6.32</time>
   <time name="diis">   16.97   16.97</time>
   <time name="orth">    0.90    0.90</time>
   <time name="total">   24.58   24.59</time>
   <energy>
    <i name="alphaZ">    513.34608474 </i>
    <i name="ewald">  40679.19288233 </i>
    <i name="hartreedc"> -56491.63596722 </i>
    <i name="XCdc">    809.68450410 </i>
    <i name="pawpsdc">  20996.24959237 </i>
    <i name="pawaedc"> -20812.40961381 </i>
    <i name="eentropy">     -0.00546717 </i>
    <i name="bandstr">  -1983.73438837 </i>
    <i name="atom">  15983.01041930 </i>
    <i name="e_fr_energy">   -306.30195373 </i>
    <i name="e_wo_entrp">   -306.29648656 </i>
    <i name="e_0_energy">   -306.29922015 </i>
   </energy>
  </scstep>
  <structure>
   <crystal>
    <varray name="basis" >
     <v>       0.00000000       0.00000000       5.84467938 </v>
     <v>       4.46847660      -4.46847660       0.00000000 </v>
     <v>      15.50630046      15.50630046       0.00000000 </v>
    </varray>
    <i name="volume">    809.95030024 </i>
    <varray name="rec_basis" >
     <v>       0.00000000       0.00000000       0.17109578 </v>
     <v>       0.11189496      -0.11189496       0.00000000 </v>
     <v>       0.03224496       0.03224496       0.00000000 </v>
    </varray>
   </crystal>
   <varray name="positions" >
    <v>       0.63086843       0.07004095       0.59223081 </v>
    <v>       0.13081166       0.56969810       0.00000000 </v>
    <v>       0.63081166       0.56969810       0.00000000 </v>
    <v>       0.38081166       0.26355810       0.05586496 </v>
    <v>       0.88081166       0.26355810       0.05586496 </v>
    <v>       0.38081166       0.87583810       0.05586496 </v>
    <v>       0.88081166       0.87583810       0.05586496 </v>
    <v>       0.13081166       0.56969810       0.11172992 </v>
    <v>       0.63081166       0.56969810       0.11172992 </v>
    <v>       0.13081166       0.06969810       0.14408584 </v>
    <v>       0.63081166       0.06969810       0.14408584 </v>
    <v>       0.38081166       0.37583810       0.19995080 </v>
    <v>       0.88081166       0.37583810       0.19995080 </v>
    <v>       0.38081166       0.76355810       0.19995080 </v>
    <v>       0.88081166       0.76355810       0.19995080 </v>
    <v>       0.13081166       0.06969810       0.25581576 </v>
    <v>       0.63081166       0.06969810       0.25581576 </v>
    <v>       0.13072177       0.56964587       0.28713234 </v>
    <v>       0.63073779       0.56964249       0.28813378 </v>
    <v>       0.38127282       0.26464219       0.34382125 </v>
    <v>       0.88025036       0.26465002       0.34382933 </v>
    <v>       0.38129067       0.87445361       0.34382475 </v>
    <v>       0.88024919       0.87445538       0.34383178 </v>
    <v>       0.13077924       0.56971114       0.39774025 </v>
    <v>       0.63075419       0.56963996       0.39879807 </v>
    <v>       0.13077336       0.06976786       0.43315690 </v>
    <v>       0.63080089       0.06974893       0.43643025 </v>
    <v>       0.36680388       0.37529305       0.49518735 </v>
    <v>       0.89514868       0.37529641       0.49521800 </v>
    <v>       0.36683000       0.76434145       0.49520694 </v>
    <v>       0.89521845       0.76431382       0.49524085 </v>
    <v>       0.13088237       0.06993057       0.54875219 </v>
    <v>       0.63086441       0.06991828       0.54782087 </v>
    <v>       0.13081166       0.06969810       0.05586496 </v>
    <v>       0.63081166       0.06969810       0.05586496 </v>
    <v>       0.38081166       0.56969810       0.05586496 </v>
    <v>       0.88081166       0.56969810       0.05586496 </v>
    <v>       0.38081166       0.06969810       0.19995080 </v>
    <v>       0.88081166       0.06969810       0.19995080 </v>
    <v>       0.13081166       0.56969810       0.19995080 </v>
    <v>       0.63081166       0.56969810       0.19995080 </v>
    <v>       0.13076999       0.06953853       0.34631066 </v>
    <v>       0.63077227       0.06955211       0.34591425 </v>
    <v>       0.38068931       0.56952458       0.34170199 </v>
    <v>       0.88078684       0.56953543       0.34171037 </v>
    <v>       0.36779829       0.06981079       0.49325540 </v>
    <v>       0.89392543       0.06977327       0.49326287 </v>
    <v>       0.13102667       0.56977884       0.48136362 </v>
    <v>       0.63101934       0.56982874       0.48795979 </v>
   </varray>
  </structure>
  <varray name="forces" >
   <v>      -0.12297555      -0.12254753       0.00109313 </v>
   <v>       0.78381869       0.78212920       0.00090670 </v>
   <v>       0.78224174       0.78054924       0.00091010 </v>
   <v>      -1.77259798       0.40820525      -0.00073830 </v>
   <v>      -1.77259732       0.40820612      -0.00058462 </v>
   <v>       0.40990606      -1.77043161      -0.00021201 </v>
   <v>       0.40991086      -1.77043181      -0.00005636 </v>
   <v>       1.12366554       1.12097647      -0.00305725 </v>
   <v>       1.12350100       1.12081190      -0.00311294 </v>
   <v>      -0.28287986      -0.28638922       0.00024957 </v>
   <v>      -0.27785112      -0.28134574       0.00013882 </v>
   <v>       0.01199484       0.17960706       0.04109065 </v>
   <v>       0.01164201       0.17955778      -0.04098980 </v>
   <v>       0.17995480       0.01310987       0.04024722 </v>
   <v>       0.17994597       0.01280080      -0.04179749 </v>
   <v>       0.23543803       0.23316259      -0.00192456 </v>
   <v>       0.22055866       0.21808732      -0.00120422 </v>
   <v>       0.14927986       0.14842647       0.00269662 </v>
   <v>      -0.12394405      -0.12418233       0.00071487 </v>
   <v>       0.01515144       0.19982634       0.00956469 </v>
   <v>       0.01512226       0.19963161      -0.01014579 </v>
   <v>       0.20376443       0.01274492       0.01006656 </v>
   <v>       0.20197012       0.01323513      -0.00966217 </v>
   <v>      -0.10704320      -0.10813279      -0.00012336 </v>
   <v>       0.04011746       0.04122147      -0.00151859 </v>
   <v>      -0.51476631      -0.51668522       0.00495001 </v>
   <v>       0.38674179       0.38584039       0.00196058 </v>
   <v>       0.02585248       0.07363363      -0.20008876 </v>
[...]
       <r>   -21.3583     0.0000     0.0000 </r>
       <r>   -21.2411     0.0000     0.0000 </r>
       <r>   -21.1240     0.0087     0.0010 </r>
       <r>   -21.0068     0.4718     0.0563 </r>
       <r>   -20.8896     1.5096     0.2332 </r>
       <r>   -20.7725     1.7182     0.4345 </r>
       <r>   -20.6553     1.7692     0.6418 </r>
       <r>   -20.5381     2.3897     0.9218 </r>
       <r>   -20.4209     4.3131     1.4272 </r>
       <r>   -20.3038     3.5081     1.8382 </r>
       <r>   -20.1866     3.7268     2.2749 </r>
       <r>   -20.0694     6.0188     2.9801 </r>
       <r>   -19.9523     6.4776     3.7391 </r>
       <r>   -19.8351     6.4718     4.4974 </r>
       <r>   -19.7179     5.0163     5.0851 </r>
       <r>   -19.6008     4.7984     5.6473 </r>
       <r>   -19.4836     8.9196     6.6924 </r>
       <r>   -19.3664     8.2367     7.6575 </r>
       <r>   -19.2493     7.8665     8.5792 </r>
       <r>   -19.1321     6.7624     9.3716 </r>
       <r>   -19.0149     8.7379    10.3954 </r>
       <r>   -18.8978     9.3051    11.4857 </r>
       <r>   -18.7806     8.1764    12.4437 </r>
       <r>   -18.6634     8.7867    13.4732 </r>
       <r>   -18.5462     7.9096    14.4000 </r>
       <r>   -18.4291     7.1653    15.2395 </r>
       <r>   -18.3119     9.0688    16.3021 </r>
       <r>   -18.1947     6.4294    17.0554 </r>
       <r>   -18.0776    12.6816    18.5413 </r>
       <r>   -17.9604    16.6484    20.4920 </r>
       <r>   -17.8432    17.3182    22.5212 </r>
       <r>   -17.7261    19.4082    24.7952 </r>
       <r>   -17.6089    17.0683    26.7951 </r>
       <r>   -17.4917    14.0318    28.4392 </r>
       <r>   -17.3746     3.9307    28.8997 </r>
       <r>   -17.2574     0.7827    28.9915 </r>
       <r>   -17.1402     0.0729    29.0000 </r>
       <r>   -17.0230     0.0000    29.0000 </r>
       <r>   -16.9059     0.0000    29.0000 </r>
       <r>   -16.7887     0.0030    29.0004 </r>
       <r>   -16.6715     2.0793    29.2440 </r>
       <r>   -16.5544     5.8609    29.9307 </r>
       <r>   -16.4372     0.5909    29.9999 </r>
       <r>   -16.3200     0.0005    30.0000 </r>
       <r>   -16.2029     0.0000    30.0000 </r>
       <r>   -16.0857     0.1688    30.0198 </r>
       <r>   -15.9685     2.2188    30.2798 </r>
       <r>   -15.8514     3.7135    30.7149 </r>
       <r>   -15.7342     0.4153    30.7635 </r>
       <r>   -15.6170     3.4889    31.1723 </r>
       <r>   -15.4998     0.6647    31.2502 </r>
       <r>   -15.3827     2.0214    31.4871 </r>
       <r>   -15.2655     3.1976    31.8617 </r>
       <r>   -15.1483     1.1787    31.9998 </r>
       <r>   -15.0312     0.0016    32.0000 </r>
       <r>   -14.9140     0.0000    32.0000 </r>
       <r>   -14.7968     0.0000    32.0000 </r>
       <r>   -14.6797     0.0000    32.0000 </r>
       <r>   -14.5625     0.0000    32.0000 </r>
       <r>   -14.4453     0.0000    32.0000 </r>
       <r>   -14.3282     0.0000    32.0000 </r>
       <r>   -14.2110     0.0000    32.0000 </r>
       <r>   -14.0938     0.0000    32.0000 </r>
       <r>   -13.9766     0.0000    32.0000 </r>
       <r>   -13.8595     0.0000    32.0000 </r>
       <r>   -13.7423     0.0000    32.0000 </r>
       <r>   -13.6251     0.0000    32.0000 </r>
       <r>   -13.5080     0.0000    32.0000 </r>
       <r>   -13.3908     0.0000    32.0000 </r>
       <r>   -13.2736     0.0000    32.0000 </r>
       <r>   -13.1565     0.0000    32.0000 </r>
       <r>   -13.0393     0.0000    32.0000 </r>
       <r>   -12.9221     0.0000    32.0000 </r>
       <r>   -12.8050     0.0000    32.0000 </r>
       <r>   -12.6878     0.0000    32.0000 </r>
       <r>   -12.5706     0.0000    32.0000 </r>
       <r>   -12.4535     0.0000    32.0000 </r>
       <r>   -12.3363     0.0000    32.0000 </r>
       <r>   -12.2191     0.0000    32.0000 </r>
       <r>   -12.1019     0.0000    32.0000 </r>
       <r>   -11.9848     0.0000    32.0000 </r>
       <r>   -11.8676     0.0000    32.0000 </r>
       <r>   -11.7504     0.0000    32.0000 </r>
       <r>   -11.6333     0.0000    32.0000 </r>
       <r>   -11.5161     0.0000    32.0000 </r>
       <r>   -11.3989     0.0000    32.0000 </r>
       <r>   -11.2818     0.0000    32.0000 </r>
       <r>   -11.1646     0.0000    32.0000 </r>
       <r>   -11.0474     0.0000    32.0000 </r>
       <r>   -10.9303     0.0000    32.0000 </r>
       <r>   -10.8131     0.0000    32.0000 </r>
       <r>   -10.6959     0.0000    32.0000 </r>
       <r>   -10.5787     0.0000    32.0000 </r>
       <r>   -10.4616     0.0009    32.0001 </r>
       <r>   -10.3444     0.8808    32.1033 </r>
       <r>   -10.2272     2.0522    32.3438 </r>
       <r>   -10.1101     2.4388    32.6295 </r>
       <r>    -9.9929     4.5583    33.1636 </r>
       <r>    -9.8757     5.9151    33.8567 </r>
       <r>    -9.7586     2.1255    34.1057 </r>
       <r>    -9.6414     5.6913    34.7726 </r>
       <r>    -9.5242     5.7406    35.4452 </r>
       <r>    -9.4071     8.0152    36.3843 </r>
       <r>    -9.2899     8.9762    37.4360 </r>
       <r>    -9.1727     5.3041    38.0575 </r>
       <r>    -9.0555     3.9637    38.5219 </r>
       <r>    -8.9384     4.4598    39.0445 </r>
       <r>    -8.8212     6.5307    39.8097 </r>
       <r>    -8.7040     6.0357    40.5169 </r>
       <r>    -8.5869     4.4527    41.0386 </r>
       <r>    -8.4697     3.6039    41.4609 </r>
       <r>    -8.3525     2.9283    41.8040 </r>
       <r>    -8.2354     3.1554    42.1737 </r>
       <r>    -8.1182     4.9106    42.7490 </r>
       <r>    -8.0010     6.8325    43.5496 </r>
       <r>    -7.8839     3.1019    43.9131 </r>
       <r>    -7.7667     4.1790    44.4027 </r>
       <r>    -7.6495     2.2431    44.6655 </r>
       <r>    -7.5324     1.6179    44.8551 </r>
       <r>    -7.4152     2.5019    45.1482 </r>
       <r>    -7.2980     3.4932    45.5575 </r>
       <r>    -7.1808     4.7431    46.1133 </r>
       <r>    -7.0637     5.9755    46.8134 </r>
       <r>    -6.9465     4.4208    47.3314 </r>
       <r>    -6.8293     6.4639    48.0888 </r>
       <r>    -6.7122     7.3581    48.9509 </r>
       <r>    -6.5950     7.9180    49.8786 </r>
       <r>    -6.4778     9.7925    51.0260 </r>
       <r>    -6.3607    11.0089    52.3159 </r>
       <r>    -6.2435     9.4243    53.4202 </r>
       <r>    -6.1263     9.9971    54.5915 </r>
       <r>    -6.0092     7.7783    55.5029 </r>
       <r>    -5.8920     8.1639    56.4595 </r>
       <r>    -5.7748     7.9828    57.3948 </r>
       <r>    -5.6576    11.2442    58.7123 </r>
       <r>    -5.5405    10.7245    59.9688 </r>
       <r>    -5.4233    10.9482    61.2516 </r>
       <r>    -5.3061    10.9103    62.5300 </r>
       <r>    -5.1890    13.1786    64.0741 </r>
       <r>    -5.0718    12.7165    65.5641 </r>
       <r>    -4.9546    13.0793    67.0966 </r>
       <r>    -4.8375    10.0824    68.2779 </r>
       <r>    -4.7203    12.2308    69.7110 </r>
       <r>    -4.6031     9.5562    70.8307 </r>
       <r>    -4.4860    10.2770    72.0348 </r>
       <r>    -4.3688    12.4604    73.4948 </r>
       <r>    -4.2516     8.6965    74.5138 </r>
       <r>    -4.1344    10.8449    75.7845 </r>
       <r>    -4.0173    10.9264    77.0647 </r>
       <r>    -3.9001    14.3965    78.7515 </r>
       <r>    -3.7829    10.9551    80.0351 </r>
       <r>    -3.6658     7.6932    80.9365 </r>
       <r>    -3.5486    11.6450    82.3010 </r>
       <r>    -3.4314    13.9051    83.9302 </r>
       <r>    -3.3143    15.6153    85.7598 </r>
       <r>    -3.1971    13.1136    87.2964 </r>
       <r>    -3.0799    12.2037    88.7263 </r>
       <r>    -2.9628    16.7278    90.6862 </r>
       <r>    -2.8456    15.8051    92.5381 </r>
       <r>    -2.7284    18.7237    94.7319 </r>
       <r>    -2.6112    14.7449    96.4596 </r>
       <r>    -2.4941    13.0026    97.9831 </r>
       <r>    -2.3769    12.1688    99.4089 </r>
       <r>    -2.2597    16.1358   101.2995 </r>
       <r>    -2.1426    15.9930   103.1734 </r>
       <r>    -2.0254    19.0856   105.4096 </r>
       <r>    -1.9082    21.4540   107.9234 </r>
       <r>    -1.7911    20.7850   110.3588 </r>
       <r>    -1.6739    18.0604   112.4749 </r>
       <r>    -1.5567    17.9724   114.5807 </r>
       <r>    -1.4396    15.6641   116.4160 </r>
       <r>    -1.3224    16.6453   118.3663 </r>
       <r>    -1.2052    12.7772   119.8634 </r>
       <r>    -1.0881     9.5556   120.9831 </r>
       <r>    -0.9709     6.8106   121.7810 </r>
       <r>    -0.8537     3.7343   122.2186 </r>
       <r>    -0.7365     3.4903   122.6275 </r>
       <r>    -0.6194     1.9149   122.8519 </r>
       <r>    -0.5022     3.2486   123.2326 </r>
       <r>    -0.3850     7.5842   124.1212 </r>
       <r>    -0.2679     9.6819   125.2556 </r>
       <r>    -0.1507     6.2453   125.9874 </r>
       <r>    -0.0335     2.1437   126.2385 </r>
       <r>     0.0836     0.9782   126.3532 </r>
       <r>     0.2008     6.3455   127.0966 </r>
       <r>     0.3180     9.3440   128.1915 </r>
       <r>     0.4351     5.5263   128.8390 </r>
       <r>     0.5523     1.3646   128.9989 </r>
       <r>     0.6695     0.4233   129.0485 </r>
       <r>     0.7867     1.9602   129.2781 </r>
       <r>     0.9038     4.3258   129.7850 </r>
       <r>     1.0210     4.8984   130.3589 </r>
       <r>     1.1382     5.5988   131.0149 </r>
       <r>     1.2553     1.3899   131.1778 </r>
       <r>     1.3725     0.6360   131.2523 </r>
       <r>     1.4897     1.2595   131.3999 </r>
       <r>     1.6068     2.5241   131.6956 </r>
       <r>     1.7240     2.7319   132.0157 </r>
       <r>     1.8412     2.8649   132.3514 </r>
       <r>     1.9583     3.7323   132.7887 </r>
       <r>     2.0755     3.8343   133.2380 </r>
       <r>     2.1927     1.4422   133.4070 </r>
       <r>     2.3099     5.5311   134.0550 </r>
       <r>     2.4270     1.3914   134.2181 </r>
       <r>     2.5442     0.8025   134.3121 </r>
       <r>     2.6614     0.3678   134.3552 </r>
       <r>     2.7785     1.6761   134.5516 </r>
       <r>     2.8957     0.6271   134.6250 </r>
       <r>     3.0129     0.7270   134.7102 </r>
       <r>     3.1300     1.9144   134.9345 </r>
       <r>     3.2472     0.0254   134.9375 </r>
       <r>     3.3644     0.7787   135.0288 </r>
       <r>     3.4815     3.5772   135.4479 </r>
       <r>     3.5987     1.5459   135.6290 </r>
       <r>     3.7159     1.2752   135.7784 </r>
       <r>     3.8331     3.9742   136.2441 </r>
       <r>     3.9502     1.5450   136.4251 </r>
       <r>     4.0674     5.1566   137.0293 </r>
       <r>     4.1846     3.7996   137.4745 </r>
       <r>     4.3017     4.7259   138.0282 </r>
       <r>     4.4189     6.5420   138.7948 </r>
       <r>     4.5361     7.9260   139.7234 </r>
       <r>     4.6532     7.8105   140.6386 </r>
       <r>     4.7704     5.9995   141.3415 </r>
       <r>     4.8876     6.6694   142.1230 </r>
       <r>     5.0047     5.6246   142.7820 </r>
       <r>     5.1219     3.6375   143.2082 </r>
       <r>     5.2391     4.4404   143.7285 </r>
       <r>     5.3562     4.4284   144.2474 </r>
       <r>     5.4734     8.4381   145.2360 </r>
       <r>     5.5906     6.5614   146.0048 </r>
       <r>     5.7078     3.7049   146.4389 </r>
       <r>     5.8249     6.8403   147.2404 </r>
       <r>     5.9421     3.4542   147.6451 </r>
       <r>     6.0593     7.4770   148.5212 </r>
       <r>     6.1764     3.8230   148.9692 </r>
       <r>     6.2936     4.8930   149.5425 </r>
       <r>     6.4108     5.5123   150.1883 </r>
       <r>     6.5279     2.4682   150.4775 </r>
       <r>     6.6451     3.4135   150.8775 </r>
       <r>     6.7623    10.3285   152.0877 </r>
       <r>     6.8794     5.5466   152.7376 </r>
       <r>     6.9966     2.8224   153.0682 </r>
       <r>     7.1138     7.8218   153.9847 </r>
       <r>     7.2310     4.3704   154.4968 </r>
       <r>     7.3481     3.6675   154.9265 </r>
       <r>     7.4653     4.9770   155.5097 </r>
       <r>     7.5825     8.2284   156.4738 </r>
       <r>     7.6996     4.0617   156.9497 </r>
       <r>     7.8168     7.6114   157.8415 </r>
       <r>     7.9340     8.5706   158.8457 </r>
       <r>     8.0511     6.9386   159.6587 </r>
       <r>     8.1683     4.2960   160.1621 </r>
       <r>     8.2855     8.2376   161.1273 </r>
       <r>     8.4026     5.7971   161.8065 </r>
       <r>     8.5198     9.8148   162.9565 </r>
       <r>     8.6370     7.2978   163.8116 </r>
       <r>     8.7542     9.2495   164.8953 </r>
       <r>     8.8713    10.7782   166.1582 </r>
       <r>     8.9885    11.2288   167.4739 </r>
       <r>     9.1057    11.5480   168.8269 </r>
       <r>     9.2228    11.8123   170.2110 </r>
       <r>     9.3400     9.2993   171.3006 </r>
       <r>     9.4572     8.2012   172.2615 </r>
       <r>     9.5743     8.8735   173.3012 </r>
       <r>     9.6915     8.6527   174.3150 </r>
       <r>     9.8087    10.0480   175.4924 </r>
       <r>     9.9258     8.2173   176.4552 </r>
       <r>    10.0430     7.2754   177.3076 </r>
       <r>    10.1602     8.1261   178.2597 </r>
       <r>    10.2773     7.2678   179.1113 </r>
       <r>    10.3945     9.8071   180.2604 </r>
       <r>    10.5117     9.0607   181.3220 </r>
       <r>    10.6289    10.4040   182.5411 </r>
       <r>    10.7460     6.0569   183.2507 </r>
       <r>    10.8632     4.6011   183.7898 </r>
       <r>    10.9804     1.7753   183.9979 </r>
       <r>    11.0975     0.0183   184.0000 </r>
       <r>    11.2147     0.0000   184.0000 </r>
       <r>    11.3319     0.0000   184.0000 </r>
       <r>    11.4490     0.0000   184.0000 </r>
       <r>    11.5662     0.0000   184.0000 </r>
       <r>    11.6834     0.0000   184.0000 </r>
       <r>    11.8005     0.0000   184.0000 </r>
       <r>    11.9177     0.0000   184.0000 </r>
       <r>    12.0349     0.0000   184.0000 </r>
       <r>    12.1521     0.0000   184.0000 </r>
       <r>    12.2692     0.0000   184.0000 </r>
       <r>    12.3864     0.0000   184.0000 </r>
       <r>    12.5036     0.0000   184.0000 </r>
      </set>
     </set>
    </array>
   </total>
  </dos>
 </calculation>
 <structure name="finalpos" >
  <crystal>
   <varray name="basis" >
    <v>       0.00000000       0.00000000       5.84467938 </v>
    <v>       4.46847660      -4.46847660       0.00000000 </v>
    <v>      15.50630046      15.50630046       0.00000000 </v>
   </varray>
   <i name="volume">    809.95030024 </i>
   <varray name="rec_basis" >
    <v>       0.00000000       0.00000000       0.17109578 </v>
    <v>       0.11189496      -0.11189496       0.00000000 </v>
    <v>       0.03224496       0.03224496       0.00000000 </v>
   </varray>
  </crystal>
  <varray name="positions" >
   <v>       0.63093544       0.07001819       0.59149418 </v>
   <v>       0.13081166       0.56969810       0.00000000 </v>
   <v>       0.63081166       0.56969810       0.00000000 </v>
   <v>       0.38081166       0.26355810       0.05586496 </v>
   <v>       0.88081166       0.26355810       0.05586496 </v>
   <v>       0.38081166       0.87583810       0.05586496 </v>
   <v>       0.88081166       0.87583810       0.05586496 </v>
   <v>       0.13081166       0.56969810       0.11172992 </v>
   <v>       0.63081166       0.56969810       0.11172992 </v>
   <v>       0.13081166       0.06969810       0.14408584 </v>
   <v>       0.63081166       0.06969810       0.14408584 </v>
   <v>       0.38081166       0.37583810       0.19995080 </v>
   <v>       0.88081166       0.37583810       0.19995080 </v>
   <v>       0.38081166       0.76355810       0.19995080 </v>
   <v>       0.88081166       0.76355810       0.19995080 </v>
   <v>       0.13081166       0.06969810       0.25581576 </v>
   <v>       0.63081166       0.06969810       0.25581576 </v>
   <v>       0.13077618       0.56966597       0.28779567 </v>
   <v>       0.63076285       0.56969798       0.28810420 </v>
   <v>       0.38208037       0.26411915       0.34463499 </v>
   <v>       0.87946960       0.26410882       0.34463578 </v>
   <v>       0.38212825       0.87511695       0.34463502 </v>
   <v>       0.87946632       0.87511774       0.34463915 </v>
   <v>       0.13077923       0.56975130       0.39815665 </v>
   <v>       0.63074168       0.56965770       0.39939856 </v>
   <v>       0.13088459       0.06976177       0.43109802 </v>
   <v>       0.63089043       0.06976873       0.43754705 </v>
   <v>       0.36526540       0.37545154       0.49596427 </v>
   <v>       0.89658262       0.37543602       0.49599573 </v>
   <v>       0.36525580       0.76408885       0.49595580 </v>
   <v>       0.89661292       0.76406099       0.49598063 </v>
   <v>       0.13093181       0.06985621       0.54789126 </v>
   <v>       0.63093360       0.06986570       0.54722652 </v>
   <v>       0.13081166       0.06969810       0.05586496 </v>
   <v>       0.63081166       0.06969810       0.05586496 </v>
   <v>       0.38081166       0.56969810       0.05586496 </v>
   <v>       0.88081166       0.56969810       0.05586496 </v>
   <v>       0.38081166       0.06969810       0.19995080 </v>
   <v>       0.88081166       0.06969810       0.19995080 </v>
   <v>       0.13081166       0.56969810       0.19995080 </v>
   <v>       0.63081166       0.56969810       0.19995080 </v>
   <v>       0.13079533       0.06958151       0.34445456 </v>
   <v>       0.63078844       0.06962224       0.34647323 </v>
   <v>       0.38110901       0.56959016       0.34244465 </v>
   <v>       0.88042198       0.56959015       0.34244569 </v>
   <v>       0.36776281       0.06975297       0.49243873 </v>
   <v>       0.89409732       0.06976051       0.49243587 </v>
   <v>       0.13092191       0.56973571       0.48215362 </v>
   <v>       0.63097080       0.56975832       0.48850973 </v>
  </varray>
  <varray name="selective"  type="logical" >
   <v type="logical" >  T  T  T </v>
   <v type="logical" >  F  F  F </v>
   <v type="logical" >  F  F  F </v>
   <v type="logical" >  F  F  F </v>
   <v type="logical" >  F  F  F </v>
   <v type="logical" >  F  F  F </v>
   <v type="logical" >  F  F  F </v>
   <v type="logical" >  F  F  F </v>
   <v type="logical" >  F  F  F </v>
   <v type="logical" >  F  F  F </v>
   <v type="logical" >  F  F  F </v>
   <v type="logical" >  F  F  F </v>
   <v type="logical" >  F  F  F </v>
   <v type="logical" >  F  F  F </v>
   <v type="logical" >  F  F  F </v>
   <v type="logical" >  F  F  F </v>
   <v type="logical" >  F  F  F </v>
   <v type="logical" >  T  T  T </v>
   <v type="logical" >  T  T  T </v>
   <v type="logical" >  T  T  T </v>
   <v type="logical" >  T  T  T </v>
   <v type="logical" >  T  T  T </v>
   <v type="logical" >  T  T  T </v>
   <v type="logical" >  T  T  T </v>
   <v type="logical" >  T  T  T </v>
   <v type="logical" >  T  T  T </v>
   <v type="logical" >  T  T  T </v>
   <v type="logical" >  T  T  T </v>
   <v type="logical" >  T  T  T </v>
   <v type="logical" >  T  T  T </v>
   <v type="logical" >  T  T  T </v>
   <v type="logical" >  T  T  T </v>
   <v type="logical" >  T  T  T </v>
   <v type="logical" >  F  F  F </v>
   <v type="logical" >  F  F  F </v>
   <v type="logical" >  F  F  F </v>
   <v type="logical" >  F  F  F </v>
   <v type="logical" >  F  F  F </v>
   <v type="logical" >  F  F  F </v>
   <v type="logical" >  F  F  F </v>
   <v type="logical" >  F  F  F </v>
   <v type="logical" >  T  T  T </v>
   <v type="logical" >  T  T  T </v>
   <v type="logical" >  T  T  T </v>
   <v type="logical" >  T  T  T </v>
   <v type="logical" >  T  T  T </v>
   <v type="logical" >  T  T  T </v>
   <v type="logical" >  T  T  T </v>
   <v type="logical" >  T  T  T </v>
  </varray>
  <nose>
   <v>      -3.00000000       0.00000000       0.00010000       0.00010000 </v>
  </nose>
 </structure>
</modeling>
