dopGeO2_Ir_Hab_sp2                      
           1
     0.000000    0.000000    5.844679
     4.468477   -4.468477    0.000000
    15.506300   15.506300    0.000000
   H    O    Ge   Ir
   1  32  15   1
Direct configuration=     1
   0.63086345  0.07004145  0.59205392
   0.13081166  0.56969810  0.00000000
   0.63081166  0.56969810  0.00000000
   0.38081166  0.26355810  0.05586496
   0.88081166  0.26355810  0.05586496
   0.38081166  0.87583810  0.05586496
   0.88081166  0.87583810  0.05586496
   0.13081166  0.56969810  0.11172992
   0.63081166  0.56969810  0.11172992
   0.13081166  0.06969810  0.14408584
   0.63081166  0.06969810  0.14408584
   0.38081166  0.37583810  0.19995080
   0.88081166  0.37583810  0.19995080
   0.38081166  0.76355810  0.19995080
   0.88081166  0.76355810  0.19995080
   0.13081166  0.06969810  0.25581576
   0.63081166  0.06969810  0.25581576
   0.13071715  0.56964676  0.28686280
   0.63073812  0.56964014  0.28838734
   0.38107573  0.26598300  0.34360789
   0.88044851  0.26599078  0.34361739
   0.38109789  0.87310486  0.34361061
   0.88044992  0.87311160  0.34361779
   0.13078567  0.56970984  0.39762397
   0.63076781  0.56964553  0.40001068
   0.13075638  0.06975938  0.43308537
   0.63078149  0.06973206  0.43341903
   0.36788306  0.37915356  0.49481918
   0.89399477  0.37920560  0.49484199
   0.36796855  0.76046601  0.49483763
   0.89412900  0.76043525  0.49486663
   0.13089344  0.06993796  0.54778510
   0.63085914  0.06992240  0.54645268
   0.13081166  0.06969810  0.05586496
   0.63081166  0.06969810  0.05586496
   0.38081166  0.56969810  0.05586496
   0.88081166  0.56969810  0.05586496
   0.38081166  0.06969810  0.19995080
   0.88081166  0.06969810  0.19995080
   0.13081166  0.56969810  0.19995080
   0.63081166  0.56969810  0.19995080
   0.13077278  0.06953496  0.34693964
   0.63077284  0.06955335  0.34704099
   0.37856086  0.56952065  0.34130311
   0.88290640  0.56953722  0.34131353
   0.37921435  0.06982921  0.49633010
   0.88249443  0.06975389  0.49633617
   0.13097103  0.56977573  0.48178499
   0.63109853  0.56981433  0.48708492
Direct configuration=     2
   0.63086473  0.07003959  0.59152526
   0.13081166  0.56969810  0.00000000
   0.63081166  0.56969810  0.00000000
   0.38081166  0.26355810  0.05586496
   0.88081166  0.26355810  0.05586496
   0.38081166  0.87583810  0.05586496
   0.88081166  0.87583810  0.05586496
   0.13081166  0.56969810  0.11172992
   0.63081166  0.56969810  0.11172992
   0.13081166  0.06969810  0.14408584
   0.63081166  0.06969810  0.14408584
   0.38081166  0.37583810  0.19995080
   0.88081166  0.37583810  0.19995080
   0.38081166  0.76355810  0.19995080
   0.88081166  0.76355810  0.19995080
   0.13081166  0.06969810  0.25581576
   0.63081166  0.06969810  0.25581576
   0.13071785  0.56964606  0.28693234
   0.63073818  0.56964082  0.28831878
   0.38117392  0.26551508  0.34367079
   0.88034960  0.26552278  0.34367997
   0.38119488  0.87357563  0.34367411
   0.88034980  0.87358047  0.34368131
   0.13078301  0.56970967  0.39772231
   0.63076408  0.56964264  0.39945876
   0.13075886  0.06976188  0.43325873
   0.63078880  0.06973765  0.43459733
   0.36756466  0.37752371  0.49496794
   0.89434547  0.37754975  0.49499380
   0.36762892  0.76210264  0.49498672
   0.89445522  0.76208124  0.49501842
   0.13088936  0.06993753  0.54818368
   0.63086266  0.06992443  0.54780125
   0.13081166  0.06969810  0.05586496
   0.63081166  0.06969810  0.05586496
   0.38081166  0.56969810  0.05586496
   0.88081166  0.56969810  0.05586496
   0.38081166  0.06969810  0.19995080
   0.88081166  0.06969810  0.19995080
   0.13081166  0.56969810  0.19995080
   0.63081166  0.56969810  0.19995080
   0.13077210  0.06953589  0.34677462
   0.63077193  0.06955222  0.34656204
   0.37945291  0.56952216  0.34144489
   0.88201822  0.56953661  0.34145455
   0.37382558  0.06982220  0.49495887
   0.88788917  0.06975963  0.49496522
   0.13100048  0.56977700  0.48155256
   0.63105509  0.56982146  0.48749508
Direct configuration=     3
   0.63086569  0.07003820  0.59113053
   0.13081166  0.56969810  0.00000000
   0.63081166  0.56969810  0.00000000
   0.38081166  0.26355810  0.05586496
   0.88081166  0.26355810  0.05586496
   0.38081166  0.87583810  0.05586496
   0.88081166  0.87583810  0.05586496
   0.13081166  0.56969810  0.11172992
   0.63081166  0.56969810  0.11172992
   0.13081166  0.06969810  0.14408584
   0.63081166  0.06969810  0.14408584
   0.38081166  0.37583810  0.19995080
   0.88081166  0.37583810  0.19995080
   0.38081166  0.76355810  0.19995080
   0.88081166  0.76355810  0.19995080
   0.13081166  0.06969810  0.25581576
   0.63081166  0.06969810  0.25581576
   0.13071837  0.56964554  0.28698427
   0.63073822  0.56964132  0.28826759
   0.38124724  0.26516569  0.34371776
   0.88027575  0.26517333  0.34372669
   0.38126730  0.87392714  0.34372152
   0.88027504  0.87393056  0.34372875
   0.13078102  0.56970954  0.39779574
   0.63076129  0.56964048  0.39904666
   0.13076070  0.06976375  0.43338817
   0.63079426  0.06974183  0.43547713
   0.36732692  0.37630677  0.49507901
   0.89460733  0.37631338  0.49510715
   0.36737533  0.76332466  0.49509805
   0.89469879  0.76331023  0.49513176
   0.13088631  0.06993721  0.54848127
   0.63086529  0.06992594  0.54880818
   0.13081166  0.06969810  0.05586496
   0.63081166  0.06969810  0.05586496
   0.38081166  0.56969810  0.05586496
   0.88081166  0.56969810  0.05586496
   0.38081166  0.06969810  0.19995080
   0.88081166  0.06969810  0.19995080
   0.13081166  0.56969810  0.19995080
   0.63081166  0.56969810  0.19995080
   0.13077159  0.06953658  0.34665140
   0.63077125  0.06955138  0.34620442
   0.38011897  0.56952328  0.34155075
   0.88135506  0.56953616  0.34155984
   0.36980198  0.06981697  0.49393501
   0.89191723  0.06976391  0.49394158
   0.13102248  0.56977795  0.48137901
   0.63102265  0.56982679  0.48780134
Direct configuration=     4
   0.63086843  0.07004095  0.59223081
   0.13081166  0.56969810  0.00000000
   0.63081166  0.56969810  0.00000000
   0.38081166  0.26355810  0.05586496
   0.88081166  0.26355810  0.05586496
   0.38081166  0.87583810  0.05586496
   0.88081166  0.87583810  0.05586496
   0.13081166  0.56969810  0.11172992
   0.63081166  0.56969810  0.11172992
   0.13081166  0.06969810  0.14408584
   0.63081166  0.06969810  0.14408584
   0.38081166  0.37583810  0.19995080
   0.88081166  0.37583810  0.19995080
   0.38081166  0.76355810  0.19995080
   0.88081166  0.76355810  0.19995080
   0.13081166  0.06969810  0.25581576
   0.63081166  0.06969810  0.25581576
   0.13072177  0.56964587  0.28713234
   0.63073779  0.56964249  0.28813378
   0.38127282  0.26464219  0.34382125
   0.88025036  0.26465002  0.34382933
   0.38129067  0.87445361  0.34382475
   0.88024919  0.87445538  0.34383178
   0.13077924  0.56971114  0.39774025
   0.63075419  0.56963996  0.39879807
   0.13077336  0.06976786  0.43315690
   0.63080089  0.06974893  0.43643025
   0.36680388  0.37529305  0.49518735
   0.89514868  0.37529641  0.49521800
   0.36683000  0.76434145  0.49520694
   0.89521845  0.76431382  0.49524085
   0.13088237  0.06993057  0.54875219
   0.63086441  0.06991828  0.54782087
   0.13081166  0.06969810  0.05586496
   0.63081166  0.06969810  0.05586496
   0.38081166  0.56969810  0.05586496
   0.88081166  0.56969810  0.05586496
   0.38081166  0.06969810  0.19995080
   0.88081166  0.06969810  0.19995080
   0.13081166  0.56969810  0.19995080
   0.63081166  0.56969810  0.19995080
   0.13076999  0.06953853  0.34631066
   0.63077227  0.06955211  0.34591425
   0.38068931  0.56952458  0.34170199
   0.88078684  0.56953543  0.34171037
   0.36779829  0.06981079  0.49325540
   0.89392543  0.06977327  0.49326287
   0.13102667  0.56977884  0.48136362
   0.63101934  0.56982874  0.48795979
Direct configuration=     5
   0.63086884  0.07004137  0.59239627
   0.13081166  0.56969810  0.00000000
   0.63081166  0.56969810  0.00000000
   0.38081166  0.26355810  0.05586496
   0.88081166  0.26355810  0.05586496
   0.38081166  0.87583810  0.05586496
   0.88081166  0.87583810  0.05586496
   0.13081166  0.56969810  0.11172992
   0.63081166  0.56969810  0.11172992
   0.13081166  0.06969810  0.14408584
   0.63081166  0.06969810  0.14408584
   0.38081166  0.37583810  0.19995080
   0.88081166  0.37583810  0.19995080
   0.38081166  0.76355810  0.19995080
   0.88081166  0.76355810  0.19995080
   0.13081166  0.06969810  0.25581576
   0.63081166  0.06969810  0.25581576
   0.13072229  0.56964592  0.28715460
   0.63073773  0.56964267  0.28811365
   0.38127667  0.26456346  0.34383681
   0.88024654  0.26457133  0.34384476
   0.38129418  0.87453278  0.34384027
   0.88024530  0.87453430  0.34384727
   0.13077897  0.56971138  0.39773190
   0.63075313  0.56963988  0.39876069
   0.13077526  0.06976848  0.43312213
   0.63080188  0.06975000  0.43657358
   0.36672522  0.37514061  0.49520364
   0.89523008  0.37514348  0.49523467
   0.36674799  0.76449436  0.49522331
   0.89529659  0.76446474  0.49525726
   0.13088178  0.06992957  0.54879293
   0.63086428  0.06991713  0.54767240
   0.13081166  0.06969810  0.05586496
   0.63081166  0.06969810  0.05586496
   0.38081166  0.56969810  0.05586496
   0.88081166  0.56969810  0.05586496
   0.38081166  0.06969810  0.19995080
   0.88081166  0.06969810  0.19995080
   0.13081166  0.56969810  0.19995080
   0.63081166  0.56969810  0.19995080
   0.13076975  0.06953882  0.34625942
   0.63077242  0.06955222  0.34587061
   0.38077508  0.56952478  0.34172473
   0.88070140  0.56953532  0.34173301
   0.36749698  0.06980986  0.49315321
   0.89422742  0.06977467  0.49316080
   0.13102731  0.56977897  0.48136130
   0.63101884  0.56982903  0.48798362
Direct configuration=     6
   0.63087141  0.07004081  0.59229962
   0.13081166  0.56969810  0.00000000
   0.63081166  0.56969810  0.00000000
   0.38081166  0.26355810  0.05586496
   0.88081166  0.26355810  0.05586496
   0.38081166  0.87583810  0.05586496
   0.88081166  0.87583810  0.05586496
   0.13081166  0.56969810  0.11172992
   0.63081166  0.56969810  0.11172992
   0.13081166  0.06969810  0.14408584
   0.63081166  0.06969810  0.14408584
   0.38081166  0.37583810  0.19995080
   0.88081166  0.37583810  0.19995080
   0.38081166  0.76355810  0.19995080
   0.88081166  0.76355810  0.19995080
   0.13081166  0.06969810  0.25581576
   0.63081166  0.06969810  0.25581576
   0.13072798  0.56964701  0.28728177
   0.63073985  0.56964354  0.28800773
   0.38130199  0.26427692  0.34392925
   0.88022066  0.26428523  0.34393686
   0.38131983  0.87482846  0.34393297
   0.88022036  0.87482794  0.34393976
   0.13077869  0.56971264  0.39764587
   0.63074775  0.56963808  0.39877399
   0.13078602  0.06977108  0.43269502
   0.63080520  0.06975357  0.43694291
   0.36626610  0.37500725  0.49525152
   0.89569519  0.37501208  0.49528445
   0.36627547  0.76462304  0.49527208
   0.89574641  0.76458345  0.49530559
   0.13088092  0.06992296  0.54884395
   0.63086774  0.06991606  0.54772901
   0.13081166  0.06969810  0.05586496
   0.63081166  0.06969810  0.05586496
   0.38081166  0.56969810  0.05586496
   0.88081166  0.56969810  0.05586496
   0.38081166  0.06969810  0.19995080
   0.88081166  0.06969810  0.19995080
   0.13081166  0.56969810  0.19995080
   0.63081166  0.56969810  0.19995080
   0.13077082  0.06954031  0.34593102
   0.63077267  0.06955387  0.34583368
   0.38090106  0.56952586  0.34181845
   0.88057553  0.56953445  0.34182626
   0.36766017  0.06980715  0.49303457
   0.89406584  0.06978188  0.49304339
   0.13102139  0.56977852  0.48147091
   0.63102792  0.56982672  0.48795985
Direct configuration=     7
   0.63087770  0.07003944  0.59206294
   0.13081166  0.56969810  0.00000000
   0.63081166  0.56969810  0.00000000
   0.38081166  0.26355810  0.05586496
   0.88081166  0.26355810  0.05586496
   0.38081166  0.87583810  0.05586496
   0.88081166  0.87583810  0.05586496
   0.13081166  0.56969810  0.11172992
   0.63081166  0.56969810  0.11172992
   0.13081166  0.06969810  0.14408584
   0.63081166  0.06969810  0.14408584
   0.38081166  0.37583810  0.19995080
   0.88081166  0.37583810  0.19995080
   0.38081166  0.76355810  0.19995080
   0.88081166  0.76355810  0.19995080
   0.13081166  0.06969810  0.25581576
   0.63081166  0.06969810  0.25581576
   0.13074193  0.56964970  0.28759321
   0.63074505  0.56964569  0.28774831
   0.38136400  0.26357517  0.34415565
   0.88015730  0.26358459  0.34416242
   0.38138263  0.87555259  0.34415998
   0.88015928  0.87554706  0.34416626
   0.13077799  0.56971570  0.39743518
   0.63073458  0.56963367  0.39880655
   0.13081239  0.06977745  0.43164904
   0.63081333  0.06976231  0.43784741
   0.36514170  0.37468067  0.49536876
   0.89683424  0.37469028  0.49540635
   0.36511825  0.76493817  0.49539151
   0.89684804  0.76487417  0.49542395
   0.13087882  0.06990679  0.54896891
   0.63087623  0.06991344  0.54786766
   0.13081166  0.06969810  0.05586496
   0.63081166  0.06969810  0.05586496
   0.38081166  0.56969810  0.05586496
   0.88081166  0.56969810  0.05586496
   0.38081166  0.06969810  0.19995080
   0.88081166  0.06969810  0.19995080
   0.13081166  0.56969810  0.19995080
   0.63081166  0.56969810  0.19995080
   0.13077346  0.06954396  0.34512677
   0.63077328  0.06955790  0.34574323
   0.38120958  0.56952852  0.34204797
   0.88026728  0.56953231  0.34205463
   0.36805983  0.06980050  0.49274402
   0.89367012  0.06979953  0.49275585
   0.13100690  0.56977743  0.48173934
   0.63105014  0.56982106  0.48790164
Direct configuration=     8
   0.63087706  0.07003958  0.59208697
   0.13081166  0.56969810  0.00000000
   0.63081166  0.56969810  0.00000000
   0.38081166  0.26355810  0.05586496
   0.88081166  0.26355810  0.05586496
   0.38081166  0.87583810  0.05586496
   0.88081166  0.87583810  0.05586496
   0.13081166  0.56969810  0.11172992
   0.63081166  0.56969810  0.11172992
   0.13081166  0.06969810  0.14408584
   0.63081166  0.06969810  0.14408584
   0.38081166  0.37583810  0.19995080
   0.88081166  0.37583810  0.19995080
   0.38081166  0.76355810  0.19995080
   0.88081166  0.76355810  0.19995080
   0.13081166  0.06969810  0.25581576
   0.63081166  0.06969810  0.25581576
   0.13074052  0.56964943  0.28756158
   0.63074452  0.56964547  0.28777465
   0.38135770  0.26364644  0.34413265
   0.88016373  0.26365574  0.34413951
   0.38137625  0.87547905  0.34413692
   0.88016549  0.87547403  0.34414326
   0.13077806  0.56971539  0.39745658
   0.63073592  0.56963412  0.39880324
   0.13080971  0.06977680  0.43175527
   0.63081250  0.06976142  0.43775555
   0.36525590  0.37471384  0.49535686
   0.89671856  0.37472296  0.49539397
   0.36523578  0.76490616  0.49537938
   0.89673616  0.76484464  0.49541193
   0.13087904  0.06990843  0.54895622
   0.63087536  0.06991371  0.54785358
   0.13081166  0.06969810  0.05586496
   0.63081166  0.06969810  0.05586496
   0.38081166  0.56969810  0.05586496
   0.88081166  0.56969810  0.05586496
   0.38081166  0.06969810  0.19995080
   0.88081166  0.06969810  0.19995080
   0.13081166  0.56969810  0.19995080
   0.63081166  0.56969810  0.19995080
   0.13077319  0.06954359  0.34520845
   0.63077322  0.06955749  0.34575241
   0.38117825  0.56952825  0.34202466
   0.88029858  0.56953253  0.34203144
   0.36801924  0.06980118  0.49277353
   0.89371031  0.06979774  0.49278505
   0.13100838  0.56977754  0.48171208
   0.63104788  0.56982163  0.48790755
Direct configuration=     9
   0.63088115  0.07003907  0.59206437
   0.13081166  0.56969810  0.00000000
   0.63081166  0.56969810  0.00000000
   0.38081166  0.26355810  0.05586496
   0.88081166  0.26355810  0.05586496
   0.38081166  0.87583810  0.05586496
   0.88081166  0.87583810  0.05586496
   0.13081166  0.56969810  0.11172992
   0.63081166  0.56969810  0.11172992
   0.13081166  0.06969810  0.14408584
   0.63081166  0.06969810  0.14408584
   0.38081166  0.37583810  0.19995080
   0.88081166  0.37583810  0.19995080
   0.38081166  0.76355810  0.19995080
   0.88081166  0.76355810  0.19995080
   0.13081166  0.06969810  0.25581576
   0.63081166  0.06969810  0.25581576
   0.13074704  0.56964781  0.28757532
   0.63075290  0.56964793  0.28780205
   0.38166466  0.26377251  0.34421003
   0.87985474  0.26377907  0.34421750
   0.38168170  0.87536477  0.34421340
   0.87985957  0.87536283  0.34421972
   0.13077807  0.56971447  0.39758106
   0.63073340  0.56963308  0.39883252
   0.13081244  0.06977915  0.43151605
   0.63083155  0.06976340  0.43782380
   0.36513298  0.37510868  0.49539192
   0.89683082  0.37510512  0.49542958
   0.36511364  0.76450104  0.49541341
   0.89685308  0.76445630  0.49544560
   0.13087912  0.06990386  0.54873832
   0.63087612  0.06991394  0.54779330
   0.13081166  0.06969810  0.05586496
   0.63081166  0.06969810  0.05586496
   0.38081166  0.56969810  0.05586496
   0.88081166  0.56969810  0.05586496
   0.38081166  0.06969810  0.19995080
   0.88081166  0.06969810  0.19995080
   0.13081166  0.56969810  0.19995080
   0.63081166  0.56969810  0.19995080
   0.13077586  0.06954829  0.34494125
   0.63077191  0.06956224  0.34584511
   0.38114914  0.56953121  0.34205885
   0.88033056  0.56953481  0.34206487
   0.36786309  0.06979666  0.49284060
   0.89387060  0.06979641  0.49285075
   0.13101389  0.56977329  0.48174355
   0.63102960  0.56981413  0.48795442
Direct configuration=    10
   0.63088696  0.07003834  0.59203226
   0.13081166  0.56969810  0.00000000
   0.63081166  0.56969810  0.00000000
   0.38081166  0.26355810  0.05586496
   0.88081166  0.26355810  0.05586496
   0.38081166  0.87583810  0.05586496
   0.88081166  0.87583810  0.05586496
   0.13081166  0.56969810  0.11172992
   0.63081166  0.56969810  0.11172992
   0.13081166  0.06969810  0.14408584
   0.63081166  0.06969810  0.14408584
   0.38081166  0.37583810  0.19995080
   0.88081166  0.37583810  0.19995080
   0.38081166  0.76355810  0.19995080
   0.88081166  0.76355810  0.19995080
   0.13081166  0.06969810  0.25581576
   0.63081166  0.06969810  0.25581576
   0.13075630  0.56964551  0.28759483
   0.63076481  0.56965143  0.28784098
   0.38210070  0.26395160  0.34431994
   0.87941582  0.26395427  0.34432828
   0.38211559  0.87520244  0.34432205
   0.87942500  0.87520487  0.34432834
   0.13077808  0.56971316  0.39775790
   0.63072982  0.56963160  0.39887411
   0.13081632  0.06978248  0.43117624
   0.63085862  0.06976621  0.43792075
   0.36495837  0.37566955  0.49544173
   0.89699029  0.37564799  0.49548018
   0.36494014  0.76392555  0.49546175
   0.89701917  0.76390464  0.49549344
   0.13087924  0.06989738  0.54842878
   0.63087720  0.06991426  0.54770767
   0.13081166  0.06969810  0.05586496
   0.63081166  0.06969810  0.05586496
   0.38081166  0.56969810  0.05586496
   0.88081166  0.56969810  0.05586496
   0.38081166  0.06969810  0.19995080
   0.88081166  0.06969810  0.19995080
   0.13081166  0.56969810  0.19995080
   0.63081166  0.56969810  0.19995080
   0.13077965  0.06955497  0.34456168
   0.63077006  0.06956897  0.34597679
   0.38110779  0.56953542  0.34210742
   0.88037599  0.56953805  0.34211237
   0.36764129  0.06979024  0.49293586
   0.89409829  0.06979452  0.49294407
   0.13102172  0.56976726  0.48178825
   0.63100362  0.56980346  0.48802099
Direct configuration=    11
   0.63088619  0.07003844  0.59203653
   0.13081166  0.56969810  0.00000000
   0.63081166  0.56969810  0.00000000
   0.38081166  0.26355810  0.05586496
   0.88081166  0.26355810  0.05586496
   0.38081166  0.87583810  0.05586496
   0.88081166  0.87583810  0.05586496
   0.13081166  0.56969810  0.11172992
   0.63081166  0.56969810  0.11172992
   0.13081166  0.06969810  0.14408584
   0.63081166  0.06969810  0.14408584
   0.38081166  0.37583810  0.19995080
   0.88081166  0.37583810  0.19995080
   0.38081166  0.76355810  0.19995080
   0.88081166  0.76355810  0.19995080
   0.13081166  0.06969810  0.25581576
   0.63081166  0.06969810  0.25581576
   0.13075506  0.56964582  0.28759223
   0.63076322  0.56965096  0.28783579
   0.38204264  0.26392775  0.34430531
   0.87947426  0.26393094  0.34431352
   0.38205781  0.87522405  0.34430758
   0.87948286  0.87522590  0.34431387
   0.13077807  0.56971334  0.39773435
   0.63073029  0.56963179  0.39886857
   0.13081580  0.06978203  0.43122149
   0.63085501  0.06976584  0.43790784
   0.36498162  0.37559487  0.49543510
   0.89696906  0.37557570  0.49547344
   0.36496324  0.76400218  0.49545531
   0.89699706  0.76397809  0.49548707
   0.13087922  0.06989824  0.54847000
   0.63087706  0.06991422  0.54771907
   0.13081166  0.06969810  0.05586496
   0.63081166  0.06969810  0.05586496
   0.38081166  0.56969810  0.05586496
   0.88081166  0.56969810  0.05586496
   0.38081166  0.06969810  0.19995080
   0.88081166  0.06969810  0.19995080
   0.13081166  0.56969810  0.19995080
   0.63081166  0.56969810  0.19995080
   0.13077915  0.06955408  0.34461222
   0.63077031  0.06956808  0.34595925
   0.38111330  0.56953486  0.34210096
   0.88036994  0.56953762  0.34210604
   0.36767082  0.06979110  0.49292318
   0.89406797  0.06979477  0.49293165
   0.13102067  0.56976807  0.48178230
   0.63100708  0.56980488  0.48801213
Direct configuration=    12
   0.63089071  0.07003717  0.59195673
   0.13081166  0.56969810  0.00000000
   0.63081166  0.56969810  0.00000000
   0.38081166  0.26355810  0.05586496
   0.88081166  0.26355810  0.05586496
   0.38081166  0.87583810  0.05586496
   0.88081166  0.87583810  0.05586496
   0.13081166  0.56969810  0.11172992
   0.63081166  0.56969810  0.11172992
   0.13081166  0.06969810  0.14408584
   0.63081166  0.06969810  0.14408584
   0.38081166  0.37583810  0.19995080
   0.88081166  0.37583810  0.19995080
   0.38081166  0.76355810  0.19995080
   0.88081166  0.76355810  0.19995080
   0.13081166  0.06969810  0.25581576
   0.63081166  0.06969810  0.25581576
   0.13075956  0.56964341  0.28758825
   0.63076766  0.56965588  0.28787602
   0.38224340  0.26409891  0.34435056
   0.87927418  0.26409815  0.34436005
   0.38226782  0.87506323  0.34435418
   0.87928052  0.87506530  0.34435925
   0.13077450  0.56971589  0.39779302
   0.63073163  0.56963204  0.39894685
   0.13082574  0.06977982  0.43120398
   0.63086298  0.06976990  0.43788419
   0.36504215  0.37562009  0.49550371
   0.89689276  0.37562568  0.49554043
   0.36502802  0.76396977  0.49552286
   0.89692720  0.76393581  0.49555089
   0.13088166  0.06988431  0.54833654
   0.63087942  0.06991334  0.54776834
   0.13081166  0.06969810  0.05586496
   0.63081166  0.06969810  0.05586496
   0.38081166  0.56969810  0.05586496
   0.88081166  0.56969810  0.05586496
   0.38081166  0.06969810  0.19995080
   0.88081166  0.06969810  0.19995080
   0.13081166  0.56969810  0.19995080
   0.63081166  0.56969810  0.19995080
   0.13077806  0.06955835  0.34451213
   0.63077315  0.06957390  0.34615068
   0.38110507  0.56954201  0.34215569
   0.88038786  0.56954390  0.34216135
   0.36767187  0.06978424  0.49279348
   0.89407601  0.06978776  0.49279995
   0.13099593  0.56976147  0.48179920
   0.63101434  0.56979898  0.48805644
Direct configuration=    13
   0.63089523  0.07003590  0.59187705
   0.13081166  0.56969810  0.00000000
   0.63081166  0.56969810  0.00000000
   0.38081166  0.26355810  0.05586496
   0.88081166  0.26355810  0.05586496
   0.38081166  0.87583810  0.05586496
   0.88081166  0.87583810  0.05586496
   0.13081166  0.56969810  0.11172992
   0.63081166  0.56969810  0.11172992
   0.13081166  0.06969810  0.14408584
   0.63081166  0.06969810  0.14408584
   0.38081166  0.37583810  0.19995080
   0.88081166  0.37583810  0.19995080
   0.38081166  0.76355810  0.19995080
   0.88081166  0.76355810  0.19995080
   0.13081166  0.06969810  0.25581576
   0.63081166  0.06969810  0.25581576
   0.13076405  0.56964100  0.28758428
   0.63077208  0.56966079  0.28791617
   0.38244385  0.26426979  0.34439574
   0.87907441  0.26426511  0.34440651
   0.38247750  0.87490266  0.34440071
   0.87907849  0.87490494  0.34440455
   0.13077092  0.56971844  0.39785160
   0.63073297  0.56963229  0.39902500
   0.13083566  0.06977760  0.43118650
   0.63087094  0.06977395  0.43786059
   0.36510258  0.37564527  0.49557221
   0.89681659  0.37567558  0.49560731
   0.36509269  0.76393742  0.49559031
   0.89685746  0.76389360  0.49561461
   0.13088410  0.06987041  0.54820329
   0.63088178  0.06991247  0.54781753
   0.13081166  0.06969810  0.05586496
   0.63081166  0.06969810  0.05586496
   0.38081166  0.56969810  0.05586496
   0.88081166  0.56969810  0.05586496
   0.38081166  0.06969810  0.19995080
   0.88081166  0.06969810  0.19995080
   0.13081166  0.56969810  0.19995080
   0.63081166  0.56969810  0.19995080
   0.13077698  0.06956261  0.34441221
   0.63077598  0.06957971  0.34634182
   0.38109685  0.56954915  0.34221034
   0.88040575  0.56955018  0.34221657
   0.36767291  0.06977739  0.49266398
   0.89408403  0.06978075  0.49266847
   0.13097123  0.56975489  0.48181608
   0.63102158  0.56979309  0.48810068
Direct configuration=    14
   0.63089997  0.07003455  0.59193268
   0.13081166  0.56969810  0.00000000
   0.63081166  0.56969810  0.00000000
   0.38081166  0.26355810  0.05586496
   0.88081166  0.26355810  0.05586496
   0.38081166  0.87583810  0.05586496
   0.88081166  0.87583810  0.05586496
   0.13081166  0.56969810  0.11172992
   0.63081166  0.56969810  0.11172992
   0.13081166  0.06969810  0.14408584
   0.63081166  0.06969810  0.14408584
   0.38081166  0.37583810  0.19995080
   0.88081166  0.37583810  0.19995080
   0.38081166  0.76355810  0.19995080
   0.88081166  0.76355810  0.19995080
   0.13081166  0.06969810  0.25581576
   0.63081166  0.06969810  0.25581576
   0.13076760  0.56963903  0.28760480
   0.63077498  0.56966697  0.28795529
   0.38252718  0.26432547  0.34443495
   0.87899304  0.26431885  0.34444632
   0.38256774  0.87485475  0.34444167
   0.87899388  0.87485413  0.34444419
   0.13076831  0.56972261  0.39787513
   0.63073369  0.56963505  0.39909707
   0.13084508  0.06977436  0.43116161
   0.63087764  0.06977721  0.43781884
   0.36517529  0.37556496  0.49564043
   0.89673051  0.37560445  0.49567465
   0.36516866  0.76400819  0.49565717
   0.89677401  0.76396554  0.49567891
   0.13088682  0.06986197  0.54809295
   0.63088444  0.06991150  0.54769313
   0.13081166  0.06969810  0.05586496
   0.63081166  0.06969810  0.05586496
   0.38081166  0.56969810  0.05586496
   0.88081166  0.56969810  0.05586496
   0.38081166  0.06969810  0.19995080
   0.88081166  0.06969810  0.19995080
   0.13081166  0.56969810  0.19995080
   0.63081166  0.56969810  0.19995080
   0.13077795  0.06956636  0.34437064
   0.63077728  0.06958552  0.34649301
   0.38114447  0.56955645  0.34225168
   0.88036677  0.56955689  0.34225787
   0.36772518  0.06977120  0.49256738
   0.89404424  0.06977464  0.49257006
   0.13096634  0.56975163  0.48185647
   0.63100912  0.56979236  0.48815574
Direct configuration=    15
   0.63090279  0.07003374  0.59196576
   0.13081166  0.56969810  0.00000000
   0.63081166  0.56969810  0.00000000
   0.38081166  0.26355810  0.05586496
   0.88081166  0.26355810  0.05586496
   0.38081166  0.87583810  0.05586496
   0.88081166  0.87583810  0.05586496
   0.13081166  0.56969810  0.11172992
   0.63081166  0.56969810  0.11172992
   0.13081166  0.06969810  0.14408584
   0.63081166  0.06969810  0.14408584
   0.38081166  0.37583810  0.19995080
   0.88081166  0.37583810  0.19995080
   0.38081166  0.76355810  0.19995080
   0.88081166  0.76355810  0.19995080
   0.13081166  0.06969810  0.25581576
   0.63081166  0.06969810  0.25581576
   0.13076971  0.56963786  0.28761700
   0.63077670  0.56967065  0.28797855
   0.38257673  0.26435857  0.34445827
   0.87894464  0.26435081  0.34446999
   0.38262139  0.87482626  0.34446602
   0.87894357  0.87482391  0.34446776
   0.13076676  0.56972508  0.39788913
   0.63073412  0.56963670  0.39913992
   0.13085068  0.06977242  0.43114681
   0.63088162  0.06977915  0.43779402
   0.36521853  0.37551720  0.49568100
   0.89667933  0.37556215  0.49571469
   0.36521383  0.76405028  0.49569693
   0.89672439  0.76400831  0.49571715
   0.13088844  0.06985695  0.54802734
   0.63088603  0.06991093  0.54761917
   0.13081166  0.06969810  0.05586496
   0.63081166  0.06969810  0.05586496
   0.38081166  0.56969810  0.05586496
   0.88081166  0.56969810  0.05586496
   0.38081166  0.06969810  0.19995080
   0.88081166  0.06969810  0.19995080
   0.13081166  0.56969810  0.19995080
   0.63081166  0.56969810  0.19995080
   0.13077853  0.06956859  0.34434592
   0.63077805  0.06958898  0.34658292
   0.38117279  0.56956079  0.34227626
   0.88034360  0.56956089  0.34228243
   0.36775626  0.06976752  0.49250993
   0.89402058  0.06977100  0.49251154
   0.13096343  0.56974970  0.48188048
   0.63100172  0.56979192  0.48818847
Direct configuration=    16
   0.63090617  0.07003216  0.59191729
   0.13081166  0.56969810  0.00000000
   0.63081166  0.56969810  0.00000000
   0.38081166  0.26355810  0.05586496
   0.88081166  0.26355810  0.05586496
   0.38081166  0.87583810  0.05586496
   0.88081166  0.87583810  0.05586496
   0.13081166  0.56969810  0.11172992
   0.63081166  0.56969810  0.11172992
   0.13081166  0.06969810  0.14408584
   0.63081166  0.06969810  0.14408584
   0.38081166  0.37583810  0.19995080
   0.88081166  0.37583810  0.19995080
   0.38081166  0.76355810  0.19995080
   0.88081166  0.76355810  0.19995080
   0.13081166  0.06969810  0.25581576
   0.63081166  0.06969810  0.25581576
   0.13077174  0.56963762  0.28765829
   0.63077654  0.56967525  0.28800024
   0.38250645  0.26426696  0.34448499
   0.87901748  0.26425898  0.34449608
   0.38255157  0.87492244  0.34449321
   0.87901614  0.87491597  0.34449463
   0.13076702  0.56972896  0.39789067
   0.63073473  0.56963900  0.39917538
   0.13085550  0.06977047  0.43109938
   0.63088600  0.06978008  0.43773983
   0.36525058  0.37543747  0.49572007
   0.89663945  0.37547240  0.49575340
   0.36524709  0.76412287  0.49573402
   0.89667921  0.76409183  0.49575455
   0.13089312  0.06985613  0.54796784
   0.63089129  0.06990738  0.54757807
   0.13081166  0.06969810  0.05586496
   0.63081166  0.06969810  0.05586496
   0.38081166  0.56969810  0.05586496
   0.88081166  0.56969810  0.05586496