<?xml version="1.0" encoding="ISO-8859-1"?>
<modeling>
 <generator>
  <i name="program" type="string">vasp </i>
  <i name="version" type="string">5.4.1  </i>
  <i name="subversion" type="string">08Jul2015 (build Apr 24 2014 00:09:29) complex standard with constrain (TS)     parallel </i>
  <i name="platform" type="string">IBM of Center for Computational Chemistry </i>
  <i name="date" type="string">2017 12 21 </i>
  <i name="time" type="string">06:32:07 </i>
 </generator>
 <incar>
  <i type="string" name="SYSTEM"> VO2_suf110_2x1x4_2fix</i>
  <i type="int" name="ISTART">     0</i>
  <i type="string" name="PREC">accurate       ! [low/medium/high/norma</i>
  <i type="string" name="ALGO">Fast</i>
  <i type="int" name="ISPIN">     2</i>
  <i type="int" name="NELM">   300</i>
  <i type="int" name="NELMIN">     3</i>
  <i type="int" name="IBRION">     2</i>
  <i name="EDIFFG">     -0.05000000</i>
  <i type="int" name="NSW">  1000</i>
  <i type="int" name="ISIF">     2</i>
  <i type="int" name="ISYM">     0</i>
  <i name="ENCUT">    500.00000000</i>
  <i name="POTIM">      0.10000000</i>
  <i type="string" name="LREAL"> A    ! aproximace, T zpomaluje, ale pre</i>
  <i type="int" name="ISMEAR">     0</i>
  <i name="SIGMA">      0.05000000</i>
  <i type="int" name="NWRITE">     2</i>
  <i type="logical" name="LWAVE"> F  </i>
  <i type="logical" name="LCHARG"> F  </i>
  <v type="int" name="KPOINT_BSE">    -1     0     0     0</v>
  <i type="int" name="NELM">   300</i>
 </incar>
 <kpoints>
  <generation param="Gamma">
   <v type="int" name="divisions">       4        4        1 </v>
   <v name="usershift">      0.00000000       0.00000000       0.00000000 </v>
   <v name="genvec1">      0.25000000       0.00000000       0.00000000 </v>
   <v name="genvec2">      0.00000000       0.25000000       0.00000000 </v>
   <v name="genvec3">      0.00000000       0.00000000       1.00000000 </v>
   <v name="shift">      0.00000000       0.00000000       0.00000000 </v>
  </generation>
  <varray name="kpointlist" >
   <v>       0.00000000       0.00000000       0.00000000 </v>
   <v>       0.25000000       0.00000000       0.00000000 </v>
   <v>       0.50000000       0.00000000       0.00000000 </v>
   <v>       0.00000000       0.25000000       0.00000000 </v>
   <v>       0.25000000       0.25000000       0.00000000 </v>
   <v>       0.50000000       0.25000000       0.00000000 </v>
   <v>      -0.25000000       0.25000000       0.00000000 </v>
   <v>       0.00000000       0.50000000       0.00000000 </v>
   <v>       0.25000000       0.50000000       0.00000000 </v>
   <v>       0.50000000       0.50000000       0.00000000 </v>
  </varray>
  <varray name="weights" >
   <v>       0.06250000 </v>
   <v>       0.12500000 </v>
   <v>       0.06250000 </v>
   <v>       0.12500000 </v>
   <v>       0.12500000 </v>
   <v>       0.12500000 </v>
   <v>       0.12500000 </v>
   <v>       0.06250000 </v>
   <v>       0.12500000 </v>
   <v>       0.06250000 </v>
  </varray>
 </kpoints>
 <parameters>
  <separator name="general" >
   <i type="string" name="SYSTEM">VO2_suf110_2x1x4_2fix</i>
   <i type="logical" name="LCOMPAT"> F  </i>
  </separator>
  <separator name="electronic" >
   <i type="string" name="PREC">accura</i>
   <i name="ENMAX">    500.00000000</i>
   <i name="ENAUG">    605.39200000</i>
   <i name="EDIFF">      0.00010000</i>
   <i type="int" name="IALGO">    68</i>
   <i type="int" name="IWAVPR">    11</i>
   <i type="int" name="NBANDS">   188</i>
   <i name="NELECT">    272.00000000</i>
   <i type="int" name="TURBO">     0</i>
   <i type="int" name="IRESTART">     0</i>
   <i type="int" name="NREBOOT">     0</i>
   <i type="int" name="NMIN">     0</i>
   <i name="EREF">      0.00000000</i>
   <separator name="electronic smearing" >
    <i type="int" name="ISMEAR">     0</i>
    <i name="SIGMA">      0.05000000</i>
    <i name="KSPACING">      0.50000000</i>
    <i type="logical" name="KGAMMA"> T  </i>
   </separator>
   <separator name="electronic projectors" >
    <i type="logical" name="LREAL"> T  </i>
    <v name="ROPT">     -0.00025000     -0.00025000</v>
    <i type="int" name="LMAXPAW">  -100</i>
    <i type="int" name="LMAXMIX">     2</i>
    <i type="logical" name="NLSPLINE"> F  </i>
   </separator>
   <separator name="electronic startup" >
    <i type="int" name="ISTART">     0</i>
    <i type="int" name="ICHARG">     2</i>
    <i type="int" name="INIWAV">     1</i>
   </separator>
   <separator name="electronic spin" >
    <i type="int" name="ISPIN">     2</i>
    <i type="logical" name="LNONCOLLINEAR"> F  </i>
    <v name="MAGMOM">      1.00000000      1.00000000      1.00000000      1.00000000      1.00000000      1.00000000      1.00000000      1.00000000      1.00000000      1.00000000      1.00000000      1.00000000      1.00000000      1.00000000      1.00000000      1.00000000      1.00000000      1.00000000      1.00000000      1.00000000
      1.00000000      1.00000000      1.00000000      1.00000000      1.00000000      1.00000000      1.00000000      1.00000000      1.00000000      1.00000000      1.00000000      1.00000000      1.00000000      1.00000000      1.00000000      1.00000000      1.00000000      1.00000000      1.00000000      1.00000000
      1.00000000      1.00000000      1.00000000      1.00000000      1.00000000      1.00000000      1.00000000      1.00000000</v>
    <i name="NUPDOWN">     -1.00000000</i>
    <i type="logical" name="LSORBIT"> F  </i>
    <v name="SAXIS">      0.00000000      0.00000000      1.00000000</v>
    <i type="logical" name="LSPIRAL"> F  </i>
    <v name="QSPIRAL">      0.00000000      0.00000000      0.00000000</v>
    <i type="logical" name="LZEROZ"> F  </i>
   </separator>
   <separator name="electronic exchange-correlation" >
    <i type="logical" name="LASPH"> F  </i>
    <i type="logical" name="LMETAGGA"> F  </i>
   </separator>
   <separator name="electronic convergence" >
    <i type="int" name="NELM">   300</i>
    <i type="int" name="NELMDL">    -5</i>
    <i type="int" name="NELMIN">     3</i>
    <i name="ENINI">    500.00000000</i>
    <separator name="electronic convergence detail" >
     <i type="logical" name="LDIAG"> T  </i>
     <i type="logical" name="LSUBROT"> F  </i>
     <i name="WEIMIN">      0.00100000</i>
     <i name="EBREAK">      0.00000013</i>
     <i name="DEPER">      0.30000000</i>
     <i type="int" name="NRMM">     4</i>
     <i name="TIME">      0.40000000</i>
    </separator>
   </separator>
   <separator name="electronic mixer" >
    <i name="AMIX">      0.40000000</i>
    <i name="BMIX">      1.00000000</i>
    <i name="AMIN">      0.10000000</i>
    <i name="AMIX_MAG">      1.60000000</i>
    <i name="BMIX_MAG">      1.00000000</i>
    <separator name="electronic mixer details" >
     <i type="int" name="IMIX">     4</i>
     <i type="logical" name="MIXFIRST"> F  </i>
     <i type="int" name="MAXMIX">   -45</i>
     <i name="WC">    100.00000000</i>
     <i type="int" name="INIMIX">     1</i>
     <i type="int" name="MIXPRE">     1</i>
     <i type="int" name="MREMOVE">     5</i>
    </separator>
   </separator>
   <separator name="electronic dipolcorrection" >
    <i type="logical" name="LDIPOL"> F  </i>
    <i type="logical" name="LMONO"> F  </i>
    <i type="int" name="IDIPOL">     0</i>
    <i name="EPSILON">      1.00000000</i>
    <v name="DIPOL">   -100.00000000   -100.00000000   -100.00000000</v>
    <i name="EFIELD">      0.00000000</i>
   </separator>
  </separator>
  <separator name="grids" >
   <i type="int" name="NGX">    42</i>
   <i type="int" name="NGY">    48</i>
   <i type="int" name="NGZ">   162</i>
   <i type="int" name="NGXF">    84</i>
   <i type="int" name="NGYF">    96</i>
   <i type="int" name="NGZF">   324</i>
   <i type="logical" name="ADDGRID"> F  </i>
  </separator>
  <separator name="ionic" >
   <i type="int" name="NSW">  1000</i>
   <i type="int" name="IBRION">     2</i>
   <i type="int" name="ISIF">     2</i>
   <i name="PSTRESS">      0.00000000</i>
   <i name="EDIFFG">     -0.05000000</i>
   <i type="int" name="NFREE">     1</i>
   <i name="POTIM">      0.10000000</i>
   <i name="SMASS">     -3.00000000</i>
   <i name="SCALEE">      1.00000000</i>
  </separator>
  <separator name="ionic md" >
   <i name="TEBEG">      0.00010000</i>
   <i name="TEEND">      0.00010000</i>
   <i type="int" name="NBLOCK">     1</i>
   <i type="int" name="KBLOCK">  1000</i>
   <i type="int" name="NPACO">   256</i>
   <i name="APACO">     16.00000000</i>
  </separator>
  <separator name="symmetry" >
   <i type="int" name="ISYM">     0</i>
   <i name="SYMPREC">      0.00001000</i>
  </separator>
  <separator name="dos" >
   <i type="logical" name="LORBIT"> F  </i>
   <v name="RWIGS">     -1.00000000     -1.00000000</v>
   <i type="int" name="NEDOS">   301</i>
   <i name="EMIN">     10.00000000</i>
   <i name="EMAX">    -10.00000000</i>
   <i name="EFERMI">      0.00000000</i>
  </separator>
  <separator name="writing" >
   <i type="int" name="NWRITE">     2</i>
   <i type="logical" name="LWAVE"> F  </i>
   <i type="logical" name="LCHARG"> F  </i>
   <i type="logical" name="LPARD"> F  </i>
   <i type="logical" name="LVTOT"> F  </i>
   <i type="logical" name="LVHAR"> F  </i>
   <i type="logical" name="LELF"> F  </i>
   <i type="logical" name="LOPTICS"> F  </i>
   <v name="STM">      0.00000000      0.00000000      0.00000000      0.00000000      0.00000000      0.00000000      0.00000000</v>
  </separator>
  <separator name="performance" >
   <i type="int" name="NPAR">     4</i>
   <i type="int" name="NSIM">     4</i>
   <i type="int" name="NBLK">    -1</i>
   <i type="logical" name="LPLANE"> T  </i>
   <i type="logical" name="LSCALAPACK"> T  </i>
   <i type="logical" name="LSCAAWARE"> F  </i>
   <i type="logical" name="LSCALU"> F  </i>
   <i type="logical" name="LASYNC"> F  </i>
   <i type="logical" name="LORBITALREAL"> F  </i>
  </separator>
  <separator name="miscellaneous" >
   <i type="int" name="IDIOT">     3</i>
   <i type="logical" name="LMUSIC"> F  </i>
   <v name="POMASS">     16.00000000     50.94100000</v>
   <v name="DARWINR">      0.00000000      0.00000000</v>
   <v name="DARWINV">      1.00000000      1.00000000</v>
   <i type="logical" name="LCORR"> T  </i>
  </separator>
  <i type="logical" name="GGA_COMPAT"> T  </i>
  <i type="logical" name="LBERRY"> F  </i>
  <i type="int" name="ICORELEVEL">     0</i>
  <i type="logical" name="LDAU"> F  </i>
  <i type="int" name="I_CONSTRAINED_M">     0</i>
  <separator name="electronic exchange-correlation" >
   <i type="string" name="GGA">--</i>
   <i type="int" name="VOSKOWN">     0</i>
   <i type="logical" name="LHFCALC"> F  </i>
   <i type="string" name="PRECFOCK"></i>
   <i type="logical" name="LSYMGRAD"> F  </i>
   <i type="logical" name="LHFONE"> F  </i>
   <i type="logical" name="LRHFCALC"> F  </i>
   <i type="logical" name="LTHOMAS"> F  </i>
   <i type="logical" name="LMODELHF"> F  </i>
   <i name="ENCUT4O">     -1.00000000</i>
   <i type="int" name="EXXOEP">     0</i>
   <i type="int" name="FOURORBIT">     0</i>
   <i name="AEXX">      0.00000000</i>
   <i name="HFALPHA">      0.00000000</i>
   <i name="MCALPHA">      0.00000000</i>
   <i name="ALDAX">      1.00000000</i>
   <i name="AGGAX">      1.00000000</i>
   <i name="ALDAC">      1.00000000</i>
   <i name="AGGAC">      1.00000000</i>
   <i type="int" name="NKREDX">     1</i>
   <i type="int" name="NKREDY">     1</i>
   <i type="int" name="NKREDZ">     1</i>
   <i type="logical" name="SHIFTRED"> F  </i>
   <i type="logical" name="ODDONLY"> F  </i>
   <i type="logical" name="EVENONLY"> F  </i>
   <i type="int" name="LMAXFOCK">     0</i>
   <i type="int" name="NMAXFOCKAE">     0</i>
   <i type="logical" name="LFOCKAEDFT"> F  </i>
   <i name="HFSCREEN">      0.00000000</i>
   <i name="HFSCREENC">      0.00000000</i>
   <i type="int" name="NBANDSGWLOW">     0</i>
  </separator>
  <separator name="vdW DFT" >
   <i type="logical" name="LUSE_VDW"> F  </i>
   <i name="Zab_VDW">     -0.84910000</i>
   <i name="PARAM1">      0.12340000</i>
   <i name="PARAM2">      1.00000000</i>
   <i name="PARAM3">      0.00000000</i>
  </separator>
  <separator name="model GW" >
   <i type="int" name="MODEL_GW">     0</i>
   <i name="MODEL_EPS0">     10.13848528</i>
   <i name="MODEL_ALPHA">      1.00000000</i>
  </separator>
  <separator name="linear response parameters" >
   <i type="logical" name="LEPSILON"> F  </i>
   <i type="logical" name="LRPA"> F  </i>
   <i type="logical" name="LNABLA"> F  </i>
   <i type="logical" name="LVEL"> F  </i>
   <i type="int" name="KINTER">     0</i>
   <i name="CSHIFT">      0.10000000</i>
   <i name="OMEGAMAX">     -1.00000000</i>
   <i name="DEG_THRESHOLD">      0.00200000</i>
  </separator>
  <separator name="orbital magnetization" >
   <i type="logical" name="NUCIND"> F  </i>
   <v name="MAGPOS">      0.00000000      0.00000000      0.00000000</v>
   <i type="logical" name="LNICSALL"> T  </i>
   <i type="logical" name="ORBITALMAG"> F  </i>
   <i type="logical" name="LMAGBLOCH"> F  </i>
   <i type="logical" name="LCHIMAG"> F  </i>
   <i type="logical" name="LGAUGE"> T  </i>
   <i type="int" name="MAGATOM">     0</i>
   <v name="MAGDIPOL">      0.00000000      0.00000000      0.00000000</v>
   <v name="AVECCONST">      0.00000000      0.00000000      0.00000000</v>
  </separator>
  <separator name="response functions" >
   <i type="logical" name="LADDER"> F  </i>
   <i type="logical" name="LFXC"> F  </i>
   <i type="logical" name="LHARTREE"> T  </i>
   <i type="int" name="IBSE">     0</i>
   <v type="int" name="KPOINT">    -1     0     0     0</v>
   <i type="logical" name="LTCTE"> F  </i>
   <i type="logical" name="LTETE"> F  </i>
   <i type="logical" name="LTRIPLET"> F  </i>
   <i type="logical" name="LFXCEPS"> F  </i>
   <i type="logical" name="LFXHEG"> F  </i>
   <i type="int" name="NATURALO">     0</i>
   <i type="logical" name="L2ORDER"> F  </i>
   <i type="logical" name="LUSEW"> F  </i>
   <i name="ENCUTGW">     -2.00000000</i>
   <i name="ENCUTGWSOFT">     -2.00000000</i>
   <i name="ENCUTLF">     -1.00000000</i>
   <i type="int" name="LMAXMP2">    -1</i>
   <i name="SCISSOR">      0.00000000</i>
   <i type="int" name="NOMEGA">     0</i>
   <i type="int" name="NOMEGAR">     0</i>
   <i type="int" name="NBANDSGW">    -1</i>
   <i type="int" name="NBANDSO">    -1</i>
   <i type="int" name="NBANDSV">    -1</i>
   <i type="int" name="NELM">   300</i>
   <i type="int" name="NELMHF">     1</i>
   <i type="int" name="DIM">     3</i>
   <i type="int" name="ANTIRES">     0</i>
   <i name="OMEGAMAX">    -30.00000000</i>
   <i name="OMEGAMIN">    -30.00000000</i>
   <i name="OMEGATL">   -200.00000000</i>
   <i type="int" name="OMEGAGRID">     0</i>
   <i name="CSHIFT">     -0.10000000</i>
   <i type="logical" name="SELFENERGY"> F  </i>
   <i type="logical" name="LSPECTRAL"> F  </i>
   <i type="logical" name="LSPECTRALGW"> F  </i>
   <i type="logical" name="LSINGLES"> F  </i>
   <i type="logical" name="LFERMIGW"> F  </i>
   <i type="logical" name="ODDONLYGW"> F  </i>
   <i type="logical" name="EVENONLYGW"> F  </i>
   <i type="int" name="NKREDLFX">     1</i>
   <i type="int" name="NKREDLFY">     1</i>
   <i type="int" name="NKREDLFZ">     1</i>
   <i type="int" name="MAXMEM">  1800</i>
   <i type="int" name="TELESCOPE">     0</i>
   <i type="int" name="TAUPAR">     1</i>
   <i type="int" name="OMEGAPAR">    -1</i>
   <i name="LAMBDA">      1.00000000</i>
  </separator>
  <separator name="External order field" >
   <i name="OFIELD_KAPPA">      0.00000000</i>
   <v name="OFIELD_K">      0.00000000      0.00000000      0.00000000</v>
   <i name="OFIELD_Q6_NEAR">      0.00000000</i>
   <i name="OFIELD_Q6_FAR">      0.00000000</i>
   <i name="OFIELD_A">      0.00000000</i>
  </separator>
 </parameters>
 <atominfo>
  <atoms>      48 </atoms>
  <types>       2 </types>
  <array name="atoms" >
   <dimension dim="1">ion</dimension>
   <field type="string">element</field>
   <field type="int">atomtype</field>
   <set>
    <rc><c>O </c><c>   1</c></rc>
    <rc><c>O </c><c>   1</c></rc>
    <rc><c>O </c><c>   1</c></rc>
    <rc><c>O </c><c>   1</c></rc>
    <rc><c>O </c><c>   1</c></rc>
    <rc><c>O </c><c>   1</c></rc>
    <rc><c>O </c><c>   1</c></rc>
    <rc><c>O </c><c>   1</c></rc>
    <rc><c>O </c><c>   1</c></rc>
    <rc><c>O </c><c>   1</c></rc>
    <rc><c>O </c><c>   1</c></rc>
    <rc><c>O </c><c>   1</c></rc>
    <rc><c>O </c><c>   1</c></rc>
    <rc><c>O </c><c>   1</c></rc>
    <rc><c>O </c><c>   1</c></rc>
    <rc><c>O </c><c>   1</c></rc>
    <rc><c>O </c><c>   1</c></rc>
    <rc><c>O </c><c>   1</c></rc>
    <rc><c>O </c><c>   1</c></rc>
    <rc><c>O </c><c>   1</c></rc>
    <rc><c>O </c><c>   1</c></rc>
    <rc><c>O </c><c>   1</c></rc>
    <rc><c>O </c><c>   1</c></rc>
    <rc><c>O </c><c>   1</c></rc>
    <rc><c>O </c><c>   1</c></rc>
    <rc><c>O </c><c>   1</c></rc>
    <rc><c>O </c><c>   1</c></rc>
    <rc><c>O </c><c>   1</c></rc>
    <rc><c>O </c><c>   1</c></rc>
    <rc><c>O </c><c>   1</c></rc>
    <rc><c>O </c><c>   1</c></rc>
    <rc><c>O </c><c>   1</c></rc>
    <rc><c>V </c><c>   2</c></rc>
    <rc><c>V </c><c>   2</c></rc>
    <rc><c>V </c><c>   2</c></rc>
    <rc><c>V </c><c>   2</c></rc>
    <rc><c>V </c><c>   2</c></rc>
    <rc><c>V </c><c>   2</c></rc>
    <rc><c>V </c><c>   2</c></rc>
    <rc><c>V </c><c>   2</c></rc>
    <rc><c>V </c><c>   2</c></rc>
    <rc><c>V </c><c>   2</c></rc>
    <rc><c>V </c><c>   2</c></rc>
    <rc><c>V </c><c>   2</c></rc>
    <rc><c>V </c><c>   2</c></rc>
    <rc><c>V </c><c>   2</c></rc>
    <rc><c>V </c><c>   2</c></rc>
    <rc><c>V </c><c>   2</c></rc>
   </set>
  </array>
  <array name="atomtypes" >
   <dimension dim="1">type</dimension>
   <field type="int">atomspertype</field>
   <field type="string">element</field>
   <field>mass</field>
   <field>valence</field>
   <field type="string">pseudopotential</field>
   <set>
    <rc><c>  32</c><c>O </c><c>     16.00000000</c><c>      6.00000000</c><c>  PAW_PBE O 08Apr2002                   </c></rc>
    <rc><c>  16</c><c>V </c><c>     50.94100000</c><c>      5.00000000</c><c>  PAW_PBE V 08Apr2002                   </c></rc>
   </set>
  </array>
 </atominfo>
 <structure name="initialpos" >
  <crystal>
   <varray name="basis" >
    <v>       0.00000000       0.00000000       5.64711014 </v>
    <v>       4.56094328      -4.56094328       0.00000000 </v>
    <v>      15.74534340      15.74534340       0.00000000 </v>
   </varray>
   <i name="volume">    811.07882273 </i>
   <varray name="rec_basis" >
    <v>       0.00000000       0.00000000       0.17708172 </v>
    <v>       0.10962645      -0.10962645       0.00000000 </v>
    <v>       0.03175542       0.03175542       0.00000000 </v>
   </varray>
  </crystal>
  <varray name="positions" >
   <v>       0.41591489       0.55480134       0.00000000 </v>
   <v>       0.91591489       0.55480134       0.00000000 </v>
   <v>       0.16591489       0.25573134       0.05820326 </v>
   <v>       0.66591489       0.25573134       0.05820326 </v>
   <v>       0.16591489       0.85387134       0.05820326 </v>
   <v>       0.66591489       0.85387134       0.05820326 </v>
   <v>       0.41591489       0.55480134       0.11640652 </v>
   <v>       0.91591489       0.55480134       0.11640652 </v>
   <v>       0.41591489       0.05480134       0.14483467 </v>
   <v>       0.91591489       0.05480134       0.14483467 </v>
   <v>       0.16591489       0.35387134       0.20303793 </v>
   <v>       0.66591489       0.35387134       0.20303793 </v>
   <v>       0.16591489       0.75573134       0.20303793 </v>
   <v>       0.66591489       0.75573134       0.20303793 </v>
   <v>       0.41591489       0.05480134       0.26124119 </v>
   <v>       0.91591489       0.05480134       0.26124119 </v>
   <v>       0.41591489       0.55480134       0.28966934 </v>
   <v>       0.91591489       0.55480134       0.28966934 </v>
   <v>       0.16591489       0.25573134       0.34787260 </v>
   <v>       0.66591489       0.25573134       0.34787260 </v>
   <v>       0.16591489       0.85387134       0.34787260 </v>
   <v>       0.66591489       0.85387134       0.34787260 </v>
   <v>       0.41591489       0.55480134       0.40607587 </v>
   <v>       0.91591489       0.55480134       0.40607587 </v>
   <v>       0.41591489       0.05480134       0.43450401 </v>
   <v>       0.91591489       0.05480134       0.43450401 </v>
   <v>       0.16591489       0.35387134       0.49270728 </v>
   <v>       0.66591489       0.35387134       0.49270728 </v>
   <v>       0.16591489       0.75573134       0.49270728 </v>
   <v>       0.66591489       0.75573134       0.49270728 </v>
   <v>       0.41591489       0.05480134       0.55091054 </v>
   <v>       0.91591489       0.05480134       0.55091054 </v>
   <v>       0.41591489       0.05480134       0.05820326 </v>
   <v>       0.91591489       0.05480134       0.05820326 </v>
   <v>       0.16591489       0.55480134       0.05820326 </v>
   <v>       0.66591489       0.55480134       0.05820326 </v>
   <v>       0.16591489       0.05480134       0.20303793 </v>
   <v>       0.66591489       0.05480134       0.20303793 </v>
   <v>       0.41591489       0.55480134       0.20303793 </v>
   <v>       0.91591489       0.55480134       0.20303793 </v>
   <v>       0.41591489       0.05480134       0.34787260 </v>
   <v>       0.91591489       0.05480134       0.34787260 </v>
   <v>       0.16591489       0.55480134       0.34787260 </v>
   <v>       0.66591489       0.55480134       0.34787260 </v>
   <v>       0.16591489       0.05480134       0.49270728 </v>
   <v>       0.66591489       0.05480134       0.49270728 </v>
   <v>       0.41591489       0.55480134       0.49270728 </v>
   <v>       0.91591489       0.55480134       0.49270728 </v>
  </varray>
  <varray name="selective"  type="logical" >
   <v type="logical" >  F  F  F </v>
   <v type="logical" >  F  F  F </v>
   <v type="logical" >  F  F  F </v>
   <v type="logical" >  F  F  F </v>
   <v type="logical" >  F  F  F </v>
   <v type="logical" >  F  F  F </v>
   <v type="logical" >  F  F  F </v>
   <v type="logical" >  F  F  F </v>
   <v type="logical" >  F  F  F </v>
   <v type="logical" >  F  F  F </v>
   <v type="logical" >  F  F  F </v>
   <v type="logical" >  F  F  F </v>
   <v type="logical" >  F  F  F </v>
   <v type="logical" >  F  F  F </v>
   <v type="logical" >  F  F  F </v>
   <v type="logical" >  F  F  F </v>
   <v type="logical" >  T  T  T </v>
   <v type="logical" >  T  T  T </v>
   <v type="logical" >  T  T  T </v>
   <v type="logical" >  T  T  T </v>
   <v type="logical" >  T  T  T </v>
   <v type="logical" >  T  T  T </v>
   <v type="logical" >  T  T  T </v>
   <v type="logical" >  T  T  T </v>
   <v type="logical" >  T  T  T </v>
   <v type="logical" >  T  T  T </v>
   <v type="logical" >  T  T  T </v>
   <v type="logical" >  T  T  T </v>
   <v type="logical" >  T  T  T </v>
   <v type="logical" >  T  T  T </v>
   <v type="logical" >  T  T  T </v>
   <v type="logical" >  T  T  T </v>
   <v type="logical" >  F  F  F </v>
   <v type="logical" >  F  F  F </v>
   <v type="logical" >  F  F  F </v>
   <v type="logical" >  F  F  F </v>
   <v type="logical" >  F  F  F </v>
   <v type="logical" >  F  F  F </v>
   <v type="logical" >  F  F  F </v>
   <v type="logical" >  F  F  F </v>
   <v type="logical" >  T  T  T </v>
   <v type="logical" >  T  T  T </v>
   <v type="logical" >  T  T  T </v>
   <v type="logical" >  T  T  T </v>
   <v type="logical" >  T  T  T </v>
   <v type="logical" >  T  T  T </v>
   <v type="logical" >  T  T  T </v>
   <v type="logical" >  T  T  T </v>
  </varray>
  <nose>
   <v>      -3.00000000       0.00000000       0.00010000       0.00010000 </v>
  </nose>
 </structure>
 <calculation>
  <scstep>
   <time name="dav">   44.10   44.11</time>
   <time name="total">   44.48   44.49</time>
   <energy>
    <i name="alphaZ">    581.16947118 </i>
    <i name="ewald">  47987.74611106 </i>
    <i name="hartreedc"> -63954.45345926 </i>
    <i name="XCdc">    148.14909731 </i>
    <i name="pawpsdc">  14383.45823499 </i>
    <i name="pawaedc"> -13652.26267693 </i>
    <i name="eentropy">     -0.02264854 </i>
    <i name="bandstr">   2316.77068659 </i>
    <i name="atom">  16569.28804001 </i>
    <i name="e_fr_energy">   4379.84285641 </i>
    <i name="e_wo_entrp">   4379.86550495 </i>
    <i name="e_0_energy">   4379.85418068 </i>
   </energy>
  </scstep>
  <scstep>
   <time name="dav">   45.13   45.13</time>
   <time name="total">   45.13   45.14</time>
   <energy>
    <i name="e_fr_energy">   1122.26432269 </i>
    <i name="e_wo_entrp">   1122.29239251 </i>
    <i name="e_0_energy">   1122.27835760 </i>
   </energy>
  </scstep>
  <scstep>
   <time name="dav">   57.31   57.32</time>
   <time name="total">   57.32   57.34</time>
   <energy>
    <i name="e_fr_energy">   -278.63544638 </i>
    <i name="e_wo_entrp">   -278.60543460 </i>
    <i name="e_0_energy">   -278.62044049 </i>
   </energy>
  </scstep>
  <scstep>
   <time name="dav">   64.94   64.94</time>
   <time name="total">   64.94   64.96</time>
   <energy>
    <i name="e_fr_energy">   -520.22842513 </i>
    <i name="e_wo_entrp">   -520.19302500 </i>
    <i name="e_0_energy">   -520.21072506 </i>
   </energy>
  </scstep>
  <scstep>
   <time name="dav">   61.81   61.82</time>
   <time name="total">   63.47   63.49</time>
   <energy>
    <i name="e_fr_energy">   -531.80108237 </i>
    <i name="e_wo_entrp">   -531.77220161 </i>
    <i name="e_0_energy">   -531.78664199 </i>
   </energy>
  </scstep>
  <scstep>
   <time name="diag">    7.31    7.31</time>
   <time name="diis">   31.85   31.86</time>
   <time name="orth">    1.00    1.00</time>
   <time name="total">   42.19   42.21</time>
   <energy>
    <i name="e_fr_energy">   -418.04081250 </i>
    <i name="e_wo_entrp">   -417.97930907 </i>
    <i name="e_0_energy">   -418.01006078 </i>
   </energy>
  </scstep>
  <scstep>
   <time name="diag">    7.30    7.30</time>
   <time name="diis">   30.94   30.94</time>
   <time name="orth">    1.00    1.00</time>
   <time name="total">   41.26   41.28</time>
   <energy>
    <i name="e_fr_energy">   -454.71457909 </i>
    <i name="e_wo_entrp">   -454.69597543 </i>
    <i name="e_0_energy">   -454.70527726 </i>
   </energy>
  </scstep>
  <scstep>
   <time name="diag">    7.28    7.28</time>
   <time name="diis">   31.64   31.65</time>
   <time name="orth">    1.00    1.00</time>
   <time name="total">   41.94   41.96</time>
   <energy>
    <i name="e_fr_energy">   -413.21454493 </i>
    <i name="e_wo_entrp">   -413.19185726 </i>
    <i name="e_0_energy">   -413.20320109 </i>
   </energy>
  </scstep>
  <scstep>
   <time name="diag">    7.28    7.28</time>
   <time name="diis">   30.94   30.94</time>
   <time name="orth">    1.00    1.00</time>
   <time name="total">   41.23   41.25</time>
   <energy>
    <i name="e_fr_energy">   -396.55236554 </i>
    <i name="e_wo_entrp">   -396.52133604 </i>
    <i name="e_0_energy">   -396.53685079 </i>
   </energy>
  </scstep>
  <scstep>
   <time name="diag">    7.28    7.28</time>
   <time name="diis">   31.28   31.28</time>
   <time name="orth">    1.00    1.00</time>
   <time name="total">   41.58   41.59</time>
   <energy>
    <i name="e_fr_energy">   -389.25189943 </i>
    <i name="e_wo_entrp">   -389.23123527 </i>
    <i name="e_0_energy">   -389.24156735 </i>
   </energy>
  </scstep>
  <scstep>
   <time name="diag">    7.36    7.36</time>
   <time name="diis">   31.13   31.13</time>
   <time name="orth">    1.00    1.00</time>
   <time name="total">   41.51   41.52</time>
   <energy>
    <i name="e_fr_energy">   -377.86492773 </i>
    <i name="e_wo_entrp">   -377.83853284 </i>
    <i name="e_0_energy">   -377.85173029 </i>
   </energy>
  </scstep>
  <scstep>
   <time name="diag">    7.37    7.37</time>
   <time name="diis">   33.76   33.76</time>
   <time name="orth">    1.00    1.00</time>
   <time name="total">   44.14   44.15</time>
   <energy>
    <i name="e_fr_energy">   -385.92287638 </i>
    <i name="e_wo_entrp">   -385.90160328 </i>
    <i name="e_0_energy">   -385.91223983 </i>
   </energy>
  </scstep>
  <scstep>
   <time name="diag">    7.36    7.36</time>
   <time name="diis">   31.61   31.61</time>
   <time name="orth">    1.00    1.00</time>
   <time name="total">   41.97   41.99</time>
   <energy>
    <i name="e_fr_energy">   -384.62171906 </i>
    <i name="e_wo_entrp">   -384.58899534 </i>
    <i name="e_0_energy">   -384.60535720 </i>
   </energy>
  </scstep>
  <scstep>
   <time name="diag">    7.35    7.35</time>
   <time name="diis">   30.54   30.54</time>
   <time name="orth">    1.00    1.00</time>
   <time name="total">   40.89   40.92</time>
   <energy>
    <i name="e_fr_energy">   -383.97626540 </i>
    <i name="e_wo_entrp">   -383.94873208 </i>
    <i name="e_0_energy">   -383.96249874 </i>
   </energy>
  </scstep>
  <scstep>
   <time name="diag">    7.36    7.36</time>
   <time name="diis">   31.70   31.70</time>
   <time name="orth">    1.00    1.00</time>
   <time name="total">   42.07   42.08</time>
   <energy>
    <i name="e_fr_energy">   -387.57265409 </i>
    <i name="e_wo_entrp">   -387.53752111 </i>
    <i name="e_0_energy">   -387.55508760 </i>
   </energy>
  </scstep>
  <scstep>
   <time name="diag">    7.30    7.30</time>
   <time name="diis">   29.89   29.89</time>
   <time name="orth">    1.00    1.00</time>
   <time name="total">   40.20   40.22</time>
   <energy>
    <i name="e_fr_energy">   -400.23880066 </i>
    <i name="e_wo_entrp">   -400.21017134 </i>
    <i name="e_0_energy">   -400.22448600 </i>
   </energy>
  </scstep>
  <scstep>
   <time name="diag">    7.28    7.28</time>
   <time name="diis">   29.95   29.96</time>
   <time name="orth">    1.00    1.00</time>
   <time name="total">   40.25   40.27</time>
   <energy>
    <i name="e_fr_energy">   -403.54787576 </i>
    <i name="e_wo_entrp">   -403.51903906 </i>
    <i name="e_0_energy">   -403.53345741 </i>
   </energy>
  </scstep>
  <scstep>
   <time name="diag">    7.29    7.29</time>
   <time name="diis">   33.41   33.42</time>
   <time name="orth">    1.00    1.00</time>
   <time name="total">   43.72   43.73</time>
   <energy>
    <i name="e_fr_energy">   -403.90934481 </i>
    <i name="e_wo_entrp">   -403.87471692 </i>
    <i name="e_0_energy">   -403.89203087 </i>
   </energy>
  </scstep>
  <scstep>
   <time name="diag">    7.28    7.28</time>
   <time name="diis">   31.30   31.30</time>
   <time name="orth">    1.00    1.00</time>
   <time name="total">   41.60   41.61</time>
   <energy>
    <i name="e_fr_energy">   -404.46257961 </i>
    <i name="e_wo_entrp">   -404.42939722 </i>
    <i name="e_0_energy">   -404.44598842 </i>
   </energy>
  </scstep>
  <scstep>
   <time name="diag">    8.00    8.00</time>
   <time name="diis">   32.04   32.05</time>
   <time name="orth">    1.00    1.00</time>
   <time name="total">   43.06   43.07</time>
   <energy>
    <i name="e_fr_energy">   -404.72772520 </i>
    <i name="e_wo_entrp">   -404.69795443 </i>
    <i name="e_0_energy">   -404.71283982 </i>
   </energy>
  </scstep>
  <scstep>
   <time name="diag">    7.29    7.30</time>
   <time name="diis">   34.67   34.67</time>
   <time name="orth">    1.00    1.00</time>
   <time name="total">   44.98   45.00</time>
   <energy>
    <i name="e_fr_energy">   -405.18741338 </i>
    <i name="e_wo_entrp">   -405.15541868 </i>
    <i name="e_0_energy">   -405.17141603 </i>
   </energy>
  </scstep>
  <scstep>
   <time name="diag">    7.30    7.30</time>
   <time name="diis">   32.82   32.83</time>
   <time name="orth">    1.00    1.00</time>
   <time name="total">   43.14   43.16</time>
   <energy>
    <i name="e_fr_energy">   -405.77834715 </i>
    <i name="e_wo_entrp">   -405.74415221 </i>
    <i name="e_0_energy">   -405.76124968 </i>
   </energy>
  </scstep>
  <scstep>
   <time name="diag">    7.29    7.30</time>
   <time name="diis">   33.42   33.42</time>
   <time name="orth">    1.00    1.00</time>
   <time name="total">   43.73   43.75</time>
   <energy>
    <i name="e_fr_energy">   -406.11468327 </i>
    <i name="e_wo_entrp">   -406.07500748 </i>
    <i name="e_0_energy">   -406.09484537 </i>
   </energy>
  </scstep>
  <scstep>
   <time name="diag">    7.28    7.28</time>
   <time name="diis">   33.96   33.96</time>
   <time name="orth">    1.00    1.00</time>
   <time name="total">   44.26   44.28</time>
   <energy>
    <i name="e_fr_energy">   -406.32689884 </i>
    <i name="e_wo_entrp">   -406.29030271 </i>
    <i name="e_0_energy">   -406.30860077 </i>
   </energy>
  </scstep>
  <scstep>
   <time name="diag">    7.28    7.28</time>
   <time name="diis">   32.62   32.63</time>
   <time name="orth">    1.00    1.00</time>
   <time name="total">   42.93   42.94</time>
   <energy>
    <i name="e_fr_energy">   -406.42710475 </i>
    <i name="e_wo_entrp">   -406.39000881 </i>
    <i name="e_0_energy">   -406.40855678 </i>
   </energy>
  </scstep>
  <scstep>
   <time name="diag">    7.25    7.25</time>
   <time name="diis">   32.56   32.56</time>
   <time name="orth">    1.00    1.00</time>
   <time name="total">   42.82   42.84</time>
   <energy>
    <i name="e_fr_energy">   -406.53574673 </i>
    <i name="e_wo_entrp">   -406.50039432 </i>
    <i name="e_0_energy">   -406.51807052 </i>
   </energy>
  </scstep>
  <scstep>
   <time name="diag">    7.26    7.26</time>
   <time name="diis">   32.45   32.45</time>
   <time name="orth">    1.00    1.00</time>
   <time name="total">   42.73   42.75</time>
   <energy>
    <i name="e_fr_energy">   -406.57120291 </i>
    <i name="e_wo_entrp">   -406.53539698 </i>
    <i name="e_0_energy">   -406.55329994 </i>
   </energy>
  </scstep>
  <scstep>
   <time name="diag">    7.28    7.28</time>
   <time name="diis">   34.85   34.86</time>
   <time name="orth">    1.00    1.00</time>
   <time name="total">   45.16   45.18</time>
   <energy>
    <i name="e_fr_energy">   -406.60361364 </i>
    <i name="e_wo_entrp">   -406.56740980 </i>
    <i name="e_0_energy">   -406.58551172 </i>
   </energy>
  </scstep>
  <scstep>
   <time name="diag">    7.27    7.27</time>
   <time name="diis">   29.92   29.92</time>
   <time name="orth">    1.00    1.00</time>
   <time name="total">   40.22   40.23</time>
   <energy>
    <i name="e_fr_energy">   -406.60831778 </i>
    <i name="e_wo_entrp">   -406.57141752 </i>
    <i name="e_0_energy">   -406.58986765 </i>
   </energy>
  </scstep>
  <scstep>
   <time name="diag">    7.26    7.26</time>
   <time name="diis">   32.41   32.41</time>
   <time name="orth">    1.00    1.00</time>
   <time name="total">   42.69   42.71</time>
   <energy>
    <i name="e_fr_energy">   -406.61572008 </i>
    <i name="e_wo_entrp">   -406.57809536 </i>
    <i name="e_0_energy">   -406.59690772 </i>
   </energy>
  </scstep>
  <scstep>
   <time name="diag">    7.38    7.38</time>
   <time name="diis">   27.46   27.47</time>
   <time name="orth">    1.00    1.00</time>
   <time name="total">   37.88   37.89</time>
   <energy>
    <i name="e_fr_energy">   -406.61763405 </i>
    <i name="e_wo_entrp">   -406.58008727 </i>
    <i name="e_0_energy">   -406.59886066 </i>
   </energy>
  </scstep>
  <scstep>
   <time name="diag">    7.39    7.39</time>
   <time name="diis">   26.74   26.74</time>
   <time name="orth">    1.00    1.00</time>
   <time name="total">   37.16   37.18</time>
   <energy>
    <i name="e_fr_energy">   -406.62062442 </i>
    <i name="e_wo_entrp">   -406.58341585 </i>
    <i name="e_0_energy">   -406.60202013 </i>
   </energy>
  </scstep>
  <scstep>
   <time name="diag">    7.38    7.39</time>
   <time name="diis">   27.61   27.61</time>
   <time name="orth">    1.00    1.00</time>
   <time name="total">   38.03   38.05</time>
   <energy>
    <i name="e_fr_energy">   -406.62413918 </i>
    <i name="e_wo_entrp">   -406.58700303 </i>
    <i name="e_0_energy">   -406.60557110 </i>
   </energy>
  </scstep>
  <scstep>
   <time name="diag">    7.39    7.39</time>
   <time name="diis">   23.80   23.80</time>
   <time name="orth">    1.00    1.00</time>
   <time name="total">   34.22   34.24</time>
   <energy>
    <i name="e_fr_energy">   -406.62520972 </i>
    <i name="e_wo_entrp">   -406.58793951 </i>
    <i name="e_0_energy">   -406.60657462 </i>
   </energy>
  </scstep>
  <scstep>
   <time name="diag">    7.38    7.38</time>
   <time name="diis">   23.37   23.37</time>
   <time name="orth">    0.99    1.00</time>
   <time name="total">   33.78   33.80</time>
   <energy>
    <i name="e_fr_energy">   -406.62661669 </i>
    <i name="e_wo_entrp">   -406.58912991 </i>
    <i name="e_0_energy">   -406.60787330 </i>
   </energy>
  </scstep>
  <scstep>
   <time name="diag">    7.32    7.33</time>
   <time name="diis">   21.18   21.18</time>
   <time name="orth">    1.00    1.00</time>
   <time name="total">   31.54   31.56</time>
   <energy>
    <i name="e_fr_energy">   -406.62729144 </i>
    <i name="e_wo_entrp">   -406.58990472 </i>
    <i name="e_0_energy">   -406.60859808 </i>
   </energy>
  </scstep>
  <scstep>
   <time name="diag">    7.32    7.32</time>
   <time name="diis">   17.85   17.85</time>
   <time name="orth">    1.00    1.00</time>
   <time name="total">   28.22   28.24</time>
   <energy>
    <i name="e_fr_energy">   -406.62751920 </i>
    <i name="e_wo_entrp">   -406.59016179 </i>
    <i name="e_0_energy">   -406.60884049 </i>
   </energy>
  </scstep>
  <scstep>
   <time name="diag">    7.33    7.33</time>
   <time name="diis">   17.90   17.91</time>
   <time name="orth">    1.00    1.00</time>
   <time name="total">   28.28   28.29</time>
   <energy>
    <i name="e_fr_energy">   -406.62797435 </i>
    <i name="e_wo_entrp">   -406.59061037 </i>
    <i name="e_0_energy">   -406.60929236 </i>
   </energy>
  </scstep>
  <scstep>
   <time name="diag">    7.32    7.32</time>
   <time name="diis">   18.07   18.07</time>
   <time name="orth">    1.00    1.00</time>
   <time name="total">   28.43   28.45</time>
   <energy>
    <i name="e_fr_energy">   -406.62851548 </i>
    <i name="e_wo_entrp">   -406.59113186 </i>
    <i name="e_0_energy">   -406.60982367 </i>
   </energy>
  </scstep>
  <scstep>
   <time name="diag">    7.32    7.32</time>
   <time name="diis">   18.05   18.05</time>
   <time name="orth">    1.00    1.00</time>
   <time name="total">   28.41   28.43</time>
   <energy>
    <i name="e_fr_energy">   -406.62912036 </i>
    <i name="e_wo_entrp">   -406.59167050 </i>
    <i name="e_0_energy">   -406.61039543 </i>
   </energy>
  </scstep>
  <scstep>
   <time name="diag">    7.26    7.26</time>
   <time name="diis">   16.80   16.80</time>
   <time name="orth">    1.00    1.00</time>
   <time name="total">   27.09   27.11</time>
   <energy>
    <i name="e_fr_energy">   -406.62934654 </i>
    <i name="e_wo_entrp">   -406.59188521 </i>
    <i name="e_0_energy">   -406.61061587 </i>
   </energy>
  </scstep>
  <scstep>
   <time name="diag">    7.26    7.26</time>
   <time name="diis">   17.18   17.18</time>
   <time name="orth">    1.00    1.00</time>
   <time name="total">   27.47   27.49</time>
   <energy>
    <i name="e_fr_energy">   -406.62984348 </i>
    <i name="e_wo_entrp">   -406.59237954 </i>
    <i name="e_0_energy">   -406.61111151 </i>
   </energy>
  </scstep>
  <scstep>
   <time name="diag">    7.28    7.28</time>
   <time name="diis">   16.73   16.73</time>
   <time name="orth">    1.00    1.00</time>
   <time name="total">   27.04   27.06</time>
   <energy>
    <i name="e_fr_energy">   -406.63029107 </i>
    <i name="e_wo_entrp">   -406.59282265 </i>
    <i name="e_0_energy">   -406.61155686 </i>
   </energy>
  </scstep>
  <scstep>
   <time name="diag">    7.25    7.25</time>
   <time name="diis">   16.10   16.10</time>
   <time name="orth">    1.00    1.00</time>
   <time name="total">   26.38   26.40</time>
   <energy>
    <i name="e_fr_energy">   -406.63071903 </i>
    <i name="e_wo_entrp">   -406.59325500 </i>
    <i name="e_0_energy">   -406.61198702 </i>
   </energy>
  </scstep>
  <scstep>
   <time name="diag">    7.26    7.26</time>
   <time name="diis">   15.90   15.91</time>
   <time name="orth">    1.00    1.00</time>
   <time name="total">   26.19   26.21</time>
   <energy>
    <i name="e_fr_energy">   -406.63093005 </i>
    <i name="e_wo_entrp">   -406.59346834 </i>
    <i name="e_0_energy">   -406.61219919 </i>
   </energy>
  </scstep>
  <scstep>
   <time name="diag">    7.38    7.38</time>
   <time name="diis">   14.95   14.96</time>
   <time name="orth">    1.00    1.00</time>
   <time name="total">   23.71   23.72</time>
   <energy>
    <i name="alphaZ">    581.16947118 </i>
    <i name="ewald">  47987.74611106 </i>
    <i name="hartreedc"> -64504.20970470 </i>
    <i name="XCdc">    187.28069315 </i>
    <i name="pawpsdc">  22779.49542153 </i>
    <i name="pawaedc"> -22067.30276380 </i>
    <i name="eentropy">     -0.03746656 </i>
    <i name="bandstr">  -1940.06082230 </i>
    <i name="atom">  16569.28804001 </i>
    <i name="e_fr_energy">   -406.63102041 </i>
    <i name="e_wo_entrp">   -406.59355385 </i>
    <i name="e_0_energy">   -406.61228713 </i>
   </energy>
  </scstep>
  <structure>
   <crystal>
    <varray name="basis" >
     <v>       0.00000000       0.00000000       5.64711014 </v>
     <v>       4.56094328      -4.56094328       0.00000000 </v>
     <v>      15.74534340      15.74534340       0.00000000 </v>
    </varray>
    <i name="volume">    811.07882273 </i>
    <varray name="rec_basis" >
     <v>       0.00000000       0.00000000       0.17708172 </v>
     <v>       0.10962645      -0.10962645       0.00000000 </v>
     <v>       0.03175542       0.03175542       0.00000000 </v>
    </varray>
   </crystal>
   <varray name="positions" >
    <v>       0.41591489       0.55480134       0.00000000 </v>
    <v>       0.91591489       0.55480134       0.00000000 </v>
    <v>       0.16591489       0.25573134       0.05820326 </v>
    <v>       0.66591489       0.25573134       0.05820326 </v>
    <v>       0.16591489       0.85387134       0.05820326 </v>
    <v>       0.66591489       0.85387134       0.05820326 </v>
    <v>       0.41591489       0.55480134       0.11640652 </v>
    <v>       0.91591489       0.55480134       0.11640652 </v>
    <v>       0.41591489       0.05480134       0.14483467 </v>
    <v>       0.91591489       0.05480134       0.14483467 </v>
    <v>       0.16591489       0.35387134       0.20303793 </v>
    <v>       0.66591489       0.35387134       0.20303793 </v>
    <v>       0.16591489       0.75573134       0.20303793 </v>
    <v>       0.66591489       0.75573134       0.20303793 </v>
    <v>       0.41591489       0.05480134       0.26124119 </v>
    <v>       0.91591489       0.05480134       0.26124119 </v>
    <v>       0.41591489       0.55480134       0.28966934 </v>
    <v>       0.91591489       0.55480134       0.28966934 </v>
    <v>       0.16591489       0.25573134       0.34787260 </v>
    <v>       0.66591489       0.25573134       0.34787260 </v>
    <v>       0.16591489       0.85387134       0.34787260 </v>
    <v>       0.66591489       0.85387134       0.34787260 </v>
    <v>       0.41591489       0.55480134       0.40607587 </v>
    <v>       0.91591489       0.55480134       0.40607587 </v>
    <v>       0.41591489       0.05480134       0.43450401 </v>
    <v>       0.91591489       0.05480134       0.43450401 </v>
    <v>       0.16591489       0.35387134       0.49270728 </v>
    <v>       0.66591489       0.35387134       0.49270728 </v>
    <v>       0.16591489       0.75573134       0.49270728 </v>
    <v>       0.66591489       0.75573134       0.49270728 </v>
    <v>       0.41591489       0.05480134       0.55091054 </v>
    <v>       0.91591489       0.05480134       0.55091054 </v>
    <v>       0.41591489       0.05480134       0.05820326 </v>
    <v>       0.91591489       0.05480134       0.05820326 </v>
    <v>       0.16591489       0.55480134       0.05820326 </v>
    <v>       0.66591489       0.55480134       0.05820326 </v>
    <v>       0.16591489       0.05480134       0.20303793 </v>
    <v>       0.66591489       0.05480134       0.20303793 </v>
    <v>       0.41591489       0.55480134       0.20303793 </v>
    <v>       0.91591489       0.55480134       0.20303793 </v>
    <v>       0.41591489       0.05480134       0.34787260 </v>
    <v>       0.91591489       0.05480134       0.34787260 </v>
    <v>       0.16591489       0.55480134       0.34787260 </v>
    <v>       0.66591489       0.55480134       0.34787260 </v>
    <v>       0.16591489       0.05480134       0.49270728 </v>
    <v>       0.66591489       0.05480134       0.49270728 </v>
    <v>       0.41591489       0.55480134       0.49270728 </v>
    <v>       0.91591489       0.55480134       0.49270728 </v>
   </varray>
  </structure>
  <varray name="forces" >
   <v>       1.67368192       1.67572959       0.00168254 </v>
   <v>       1.67368837       1.67573487       0.00163654 </v>
   <v>      -1.06895874      -0.16913546       0.00104380 </v>
   <v>      -1.06892783      -0.16916592       0.00103084 </v>
   <v>      -0.16907182      -1.06878538      -0.00396736 </v>
   <v>      -0.16909669      -1.06875642      -0.00398032 </v>
   <v>       0.25015412       0.25143810       0.00063767 </v>
   <v>       0.25016515       0.25144719       0.00060675 </v>
   <v>      -0.59775663      -0.59598208      -0.00144342 </v>
   <v>      -0.59777602      -0.59600142      -0.00147799 </v>
   <v>      -0.03069081      -0.00299249      -0.00139219 </v>
   <v>      -0.03066532      -0.00302244      -0.00138622 </v>
   <v>      -0.00323705      -0.03497492      -0.00063669 </v>
   <v>      -0.00326146      -0.03495383      -0.00062323 </v>
   <v>       0.04300997       0.04190803       0.00044373 </v>
   <v>       0.04292046       0.04181827       0.00040915 </v>
   <v>      -0.04664619      -0.04445167       0.00013501 </v>
   <v>      -0.04664650      -0.04445257      -0.00001597 </v>
   <v>       0.03499069       0.00667669       0.00139158 </v>
   <v>       0.03501252       0.00665777       0.00132117 </v>
   <v>       0.00634621       0.03458476      -0.00173969 </v>
   <v>       0.00632542       0.03460898      -0.00181422 </v>
   <v>       0.59835032       0.59941716       0.00162965 </v>
   <v>       0.59834829       0.59941658       0.00149919 </v>
   <v>      -0.25104608      -0.25326367       0.00030717 </v>
   <v>      -0.25095434      -0.25317667       0.00026283 </v>
   <v>       1.07181426       0.17098504      -0.00274245 </v>
   <v>       1.07178151       0.17100436      -0.00273379 </v>
   <v>       0.17120475       1.06946118      -0.00136227 </v>
   <v>       0.17122529       1.06943117      -0.00135311 </v>
   <v>      -1.68026581      -1.67883024       0.00163106 </v>
   <v>      -1.68022367      -1.67879149       0.00158951 </v>
   <v>       1.97882321       1.97961063       0.00054009 </v>
   <v>       1.97882890       1.97961839       0.00055645 </v>
   <v>      -2.21518575      -2.21603981       0.00045349 </v>
   <v>      -2.21520047      -2.21605760       0.00043152 </v>
   <v>       0.02354675       0.02268003       0.00067448 </v>
   <v>       0.02356135       0.02269339       0.00062915 </v>
   <v>       0.13097546       0.13186288       0.00055159 </v>
   <v>       0.13098497       0.13187628       0.00057128 </v>
   <v>      -0.13255450      -0.13158142       0.00060254 </v>
   <v>      -0.13255708      -0.13157754       0.00061498 </v>
   <v>      -0.02292390      -0.02380362       0.00058960 </v>
   <v>      -0.02291343      -0.02379175       0.00060885 </v>
   <v>       2.21576063       2.21494483       0.00074999 </v>
   <v>       2.21574486       2.21492838       0.00074875 </v>
   <v>      -1.98033399      -1.97946372       0.00054945 </v>
   <v>      -1.98035129      -1.97948239       0.00053856 </v>
  </varray>
  <varray name="stress" >
   <v>     -12.88152105     -17.50399157       0.00129393 </v>
   <v>     -17.50399170     -12.81091985       0.01086194 </v>
   <v>       0.00129387       0.01086198     -19.40630085 </v>
  </varray>
  <energy>
   <i name="e_fr_energy">   -416.33611754 </i>
   <i name="e_wo_entrp">   -416.31738426 </i>
   <i name="e_0_energy">     -0.03746656 </i>
  </energy>
  <time name="totalsc"> 1872.68 1873.47</time>
 </calculation>
 <calculation>
  <scstep>
   <time name="dav">   47.03   47.03</time>
   <time name="total">   49.06   49.06</time>
   <energy>
    <i name="alphaZ">    581.16947118 </i>
    <i name="ewald">  48007.68748586 </i>
    <i name="hartreedc"> -64521.57327374 </i>
    <i name="XCdc">    187.40442471 </i>
    <i name="pawpsdc">  22779.45427571 </i>
    <i name="pawaedc"> -22067.26176636 </i>
    <i name="eentropy">     -0.03526417 </i>
    <i name="bandstr">  -1943.21065986 </i>
    <i name="atom">  16569.28804001 </i>
    <i name="e_fr_energy">   -407.07726665 </i>
    <i name="e_wo_entrp">   -407.04200247 </i>
    <i name="e_0_energy">   -407.05963456 </i>
   </energy>
  </scstep>
  <scstep>
   <time name="diag">    7.42    7.43</time>
   <time name="diis">   32.95   32.95</time>
   <time name="orth">    1.00    1.00</time>
   <time name="total">   43.38   43.38</time>
   <energy>
    <i name="e_fr_energy">   -407.67267594 </i>
    <i name="e_wo_entrp">   -407.63857847 </i>
    <i name="e_0_energy">   -407.65562720 </i>
   </energy>
  </scstep>
  <scstep>
   <time name="diag">    7.43    7.43</time>
   <time name="diis">   31.32   31.32</time>
   <time name="orth">    1.00    1.00</time>
   <time name="total">   41.75   41.77</time>
   <energy>
    <i name="e_fr_energy">   -407.11217534 </i>
    <i name="e_wo_entrp">   -407.07764967 </i>
    <i name="e_0_energy">   -407.09491250 </i>
   </energy>
  </scstep>
  <scstep>
   <time name="diag">    7.42    7.43</time>
   <time name="diis">   31.48   31.48</time>
   <time name="orth">    1.00    1.00</time>
   <time name="total">   41.91   41.93</time>
   <energy>
    <i name="e_fr_energy">   -407.11809786 </i>
    <i name="e_wo_entrp">   -407.07974894 </i>
    <i name="e_0_energy">   -407.09892340 </i>
   </energy>
  </scstep>
  <scstep>
   <time name="diag">    7.43    7.43</time>
   <time name="diis">   31.41   31.41</time>
   <time name="orth">    1.00    1.00</time>
   <time name="total">   41.84   41.86</time>
   <energy>
    <i name="e_fr_energy">   -407.10127814 </i>
    <i name="e_wo_entrp">   -407.06395059 </i>
    <i name="e_0_energy">   -407.08261437 </i>
   </energy>
  </scstep>
  <scstep>
   <time name="diag">    7.42    7.42</time>
   <time name="diis">   30.41   30.41</time>
   <time name="orth">    1.00    1.01</time>
   <time name="total">   40.83   40.85</time>
   <energy>
    <i name="e_fr_energy">   -407.10991197 </i>
    <i name="e_wo_entrp">   -407.07197455 </i>
    <i name="e_0_energy">   -407.09094326 </i>
   </energy>
  </scstep>
  <scstep>
   <time name="diag">    7.41    7.41</time>
   <time name="diis">   29.47   29.47</time>
   <time name="orth">    1.01    1.01</time>
   <time name="total">   39.89   39.91</time>
   <energy>
    <i name="e_fr_energy">   -407.09509183 </i>
    <i name="e_wo_entrp">   -407.05704074 </i>
    <i name="e_0_energy">   -407.07606628 </i>
   </energy>
  </scstep>
  <scstep>
   <time name="diag">    7.40    7.40</time>
   <time name="diis">   30.82   30.83</time>
   <time name="orth">    1.01    1.01</time>
   <time name="total">   41.24   41.25</time>
   <energy>
    <i name="e_fr_energy">   -407.09440553 </i>
    <i name="e_wo_entrp">   -407.05643771 </i>
    <i name="e_0_energy">   -407.07542162 </i>
   </energy>
  </scstep>
  <scstep>
   <time name="diag">    7.41    7.41</time>
   <time name="diis">   27.11   27.11</time>
   <time name="orth">    1.01    1.01</time>
   <time name="total">   37.54   37.55</time>
   <energy>
    <i name="e_fr_energy">   -407.09357078 </i>
    <i name="e_wo_entrp">   -407.05570125 </i>
    <i name="e_0_energy">   -407.07463602 </i>
   </energy>
  </scstep>
  <scstep>
   <time name="diag">    7.40    7.40</time>
   <time name="diis">   27.18   27.19</time>
   <time name="orth">    1.00    1.00</time>
   <time name="total">   37.60   37.61</time>
   <energy>
    <i name="e_fr_energy">   -407.09532591 </i>
    <i name="e_wo_entrp">   -407.05780660 </i>
    <i name="e_0_energy">   -407.07656625 </i>
   </energy>
  </scstep>
  <scstep>
   <time name="diag">    7.41    7.42</time>
   <time name="diis">   22.34   22.35</time>
   <time name="orth">    1.00    1.00</time>
   <time name="total">   32.77   32.79</time>
   <energy>
    <i name="e_fr_energy">   -407.09492790 </i>
    <i name="e_wo_entrp">   -407.05734685 </i>
    <i name="e_0_energy">   -407.07613737 </i>
   </energy>
  </scstep>
  <scstep>
   <time name="diag">    7.40    7.40</time>
   <time name="diis">   20.49   20.49</time>
   <time name="orth">    1.01    1.01</time>
   <time name="total">   30.90   30.91</time>
   <energy>
    <i name="e_fr_energy">   -407.09509355 </i>
    <i name="e_wo_entrp">   -407.05733155 </i>
    <i name="e_0_energy">   -407.07621255 </i>
   </energy>
  </scstep>
  <scstep>
   <time name="diag">    7.39    7.39</time>
   <time name="diis">   19.12   19.12</time>
   <time name="orth">    1.01    1.01</time>
   <time name="total">   29.52   29.54</time>
   <energy>
    <i name="e_fr_energy">   -407.09526998 </i>
    <i name="e_wo_entrp">   -407.05732920 </i>
    <i name="e_0_energy">   -407.07629959 </i>
   </energy>
  </scstep>
  <scstep>
   <time name="diag">    7.39    7.39</time>
   <time name="diis">   17.63   17.63</time>
   <time name="orth">    1.01    1.01</time>
   <time name="total">   26.40   26.42</time>
   <energy>
    <i name="alphaZ">    581.16947118 </i>
    <i name="ewald">  48007.68748586 </i>
    <i name="hartreedc"> -64529.51876288 </i>
    <i name="XCdc">    187.46638510 </i>
    <i name="pawpsdc">  22832.30283933 </i>
    <i name="pawaedc"> -22120.26675392 </i>
    <i name="eentropy">     -0.03788005 </i>
    <i name="bandstr">  -1935.18611454 </i>
    <i name="atom">  16569.28804001 </i>
    <i name="e_fr_energy">   -407.09528991 </i>
    <i name="e_wo_entrp">   -407.05740985 </i>
    <i name="e_0_energy">   -407.07634988 </i>
   </energy>
  </scstep>
  <structure>
   <crystal>
    <varray name="basis" >
     <v>       0.00000000       0.00000000       5.64711014 </v>
     <v>       4.56094328      -4.56094328       0.00000000 </v>
     <v>      15.74534340      15.74534340       0.00000000 </v>
    </varray>
    <i name="volume">    811.07882273 </i>
    <varray name="rec_basis" >
     <v>       0.00000000       0.00000000       0.17708172 </v>
     <v>       0.10962645      -0.10962645       0.00000000 </v>
     <v>       0.03175542       0.03175542       0.00000000 </v>
    </varray>
   </crystal>
   <varray name="positions" >
    <v>       0.41591489       0.55480134       0.00000000 </v>
    <v>       0.91591489       0.55480134       0.00000000 </v>
    <v>       0.16591489       0.25573134       0.05820326 </v>
    <v>       0.66591489       0.25573134       0.05820326 </v>
    <v>       0.16591489       0.85387134       0.05820326 </v>
    <v>       0.66591489       0.85387134       0.05820326 </v>
    <v>       0.41591489       0.55480134       0.11640652 </v>
    <v>       0.91591489       0.55480134       0.11640652 </v>
    <v>       0.41591489       0.05480134       0.14483467 </v>
    <v>       0.91591489       0.05480134       0.14483467 </v>
    <v>       0.16591489       0.35387134       0.20303793 </v>
    <v>       0.66591489       0.35387134       0.20303793 </v>
    <v>       0.16591489       0.75573134       0.20303793 </v>
    <v>       0.66591489       0.75573134       0.20303793 </v>
    <v>       0.41591489       0.05480134       0.26124119 </v>
    <v>       0.91591489       0.05480134       0.26124119 </v>
    <v>       0.41591512       0.55479902       0.28964143 </v>
    <v>       0.91591487       0.55479902       0.28964143 </v>
    <v>       0.16591727       0.25576129       0.34788537 </v>
    <v>       0.66591715       0.25576134       0.34788537 </v>
    <v>       0.16591192       0.85384148       0.34788515 </v>
    <v>       0.66591179       0.85384143       0.34788515 </v>
    <v>       0.41591768       0.55480022       0.40644285 </v>
    <v>       0.91591745       0.55480021       0.40644285 </v>
    <v>       0.41591542       0.05480369       0.43434950 </v>
    <v>       0.91591534       0.05480370       0.43434955 </v>
    <v>       0.16591021       0.35482418       0.49308806 </v>
    <v>       0.66591022       0.35482413       0.49308806 </v>
    <v>       0.16591257       0.75478123       0.49308741 </v>
    <v>       0.66591258       0.75478128       0.49308740 </v>
    <v>       0.41591768       0.05479983       0.54988133 </v>
    <v>       0.91591761       0.05479983       0.54988136 </v>
    <v>       0.41591489       0.05480134       0.05820326 </v>
    <v>       0.91591489       0.05480134       0.05820326 </v>
    <v>       0.16591489       0.55480134       0.05820326 </v>
    <v>       0.66591489       0.55480134       0.05820326 </v>
    <v>       0.16591489       0.05480134       0.20303793 </v>
    <v>       0.66591489       0.05480134       0.20303793 </v>
    <v>       0.41591489       0.55480134       0.20303793 </v>
    <v>       0.91591489       0.55480134       0.20303793 </v>
    <v>       0.41591592       0.05480032       0.34779167 </v>
    <v>       0.91591594       0.05480031       0.34779168 </v>
    <v>       0.16591590       0.55480228       0.34785829 </v>
    <v>       0.66591593       0.55480227       0.34785829 </v>
    <v>       0.16591617       0.05480221       0.49406481 </v>
    <v>       0.66591617       0.05480221       0.49406480 </v>
    <v>       0.41591583       0.55480042       0.49149402 </v>
    <v>       0.91591581       0.55480043       0.49149401 </v>
   </varray>
  </structure>
  <varray name="forces" >
   <v>       1.66974811       1.67212609       0.00173461 </v>
   <v>       1.66974901       1.67212620       0.00174009 </v>
   <v>      -1.07034444      -0.17007959       0.00107095 </v>
   <v>      -1.07034832      -0.17007964       0.00113155 </v>
   <v>      -0.17015135      -1.06999146      -0.00393610 </v>
   <v>      -0.17014481      -1.06999843      -0.00387109 </v>
   <v>       0.24637396       0.24794944       0.00068409 </v>
   <v>       0.24637359       0.24795483       0.00068364 </v>
   <v>      -0.59949495      -0.59741261      -0.00139363 </v>
   <v>      -0.59950955      -0.59742499      -0.00139406 </v>
   <v>      -0.03280825      -0.00199000      -0.00132933 </v>
   <v>      -0.03280913      -0.00199415      -0.00130558 </v>
   <v>      -0.00242175      -0.03690862      -0.00056920 </v>
   <v>      -0.00243211      -0.03691190      -0.00055207 </v>
   <v>       0.04144294       0.04060889       0.00048193 </v>
   <v>       0.04143438       0.04059615       0.00046809 </v>
   <v>      -0.00616592      -0.00383052       0.00001385 </v>
   <v>      -0.00616918      -0.00383590       0.00004499 </v>
   <v>       0.04587892      -0.02517199       0.00180698 </v>
   <v>       0.04584942      -0.02514599       0.00179600 </v>
   <v>      -0.02597453       0.04561141      -0.00154500 </v>
   <v>      -0.02594394       0.04559237      -0.00155609 </v>
   <v>       0.50406233       0.50510311       0.00037711 </v>
   <v>       0.50406624       0.50510820       0.00037462 </v>
   <v>      -0.06908696      -0.07034363       0.00054364 </v>
   <v>      -0.06914287      -0.07039842       0.00036489 </v>
   <v>       1.01291947       0.25821314      -0.00301633 </v>
   <v>       1.01285556       0.25827498      -0.00301696 </v>
   <v>       0.26039721       1.00721621       0.00012282 </v>
   <v>       0.26047482       1.00715882       0.00010937 </v>
   <v>      -1.34560029      -1.34384224      -0.00021257 </v>
   <v>      -1.34563071      -1.34386756      -0.00031814 </v>
   <v>       1.98373419       1.98473504       0.00062279 </v>
   <v>       1.98375470       1.98475595       0.00061205 </v>
   <v>      -2.21153528      -2.21221248       0.00048870 </v>
   <v>      -2.21153664      -2.21221135       0.00051370 </v>
   <v>       0.00977571       0.00905232       0.00072961 </v>
   <v>       0.00978435       0.00905852       0.00071164 </v>
   <v>       0.13223162       0.13337161       0.00062815 </v>
   <v>       0.13223414       0.13337221       0.00063100 </v>
   <v>       0.00742558       0.00813239       0.00069027 </v>
   <v>       0.00743283       0.00813612       0.00068980 </v>
   <v>      -0.13360325      -0.13397844       0.00067224 </v>
   <v>      -0.13360319      -0.13398634       0.00067576 </v>
   <v>       1.59311900       1.59284682       0.00083263 </v>
   <v>       1.59301052       1.59275691       0.00085009 </v>
   <v>      -1.83983640      -1.83911947       0.00058152 </v>
   <v>      -1.83983480      -1.83912202       0.00053695 </v>
  </varray>
  <varray name="stress" >
   <v>     -11.49208823     -16.56039092       0.00448223 </v>
   <v>     -16.56039084     -11.42511326       0.00676322 </v>
   <v>       0.00448236       0.00676335     -16.62575308 </v>
  </varray>
  <energy>
   <i name="e_fr_energy">   -416.79982059 </i>
   <i name="e_wo_entrp">   -416.78088057 </i>
   <i name="e_0_energy">     -0.03788005 </i>
  </energy>
  <time name="totalsc">  588.16  588.43</time>
 </calculation>
 <calculation>
  <scstep>
   <time name="dav">   47.22   47.22</time>
   <time name="total">   49.24   49.25</time>
   <energy>
    <i name="alphaZ">    581.16947118 </i>
    <i name="ewald">  48067.66212763 </i>
    <i name="hartreedc"> -64580.47858607 </i>
    <i name="XCdc">    187.84946514 </i>
    <i name="pawpsdc">  22832.31800078 </i>
    <i name="pawaedc"> -22120.27927918 </i>
    <i name="eentropy">     -0.02993062 </i>
    <i name="bandstr">  -1945.04091770 </i>
    <i name="atom">  16569.28804001 </i>
    <i name="e_fr_energy">   -407.54160883 </i>
    <i name="e_wo_entrp">   -407.51167821 </i>
    <i name="e_0_energy">   -407.52664352 </i>
   </energy>
  </scstep>
  <scstep>
   <time name="diag">    7.34    7.34</time>
   <time name="diis">   31.98   31.99</time>
   <time name="orth">    1.00    1.00</time>
   <time name="total">   42.36   42.37</time>
   <energy>
    <i name="e_fr_energy">   -409.46097135 </i>
    <i name="e_wo_entrp">   -409.42652106 </i>
    <i name="e_0_energy">   -409.44374620 </i>
   </energy>
  </scstep>
  <scstep>
   <time name="diag">    7.33    7.33</time>
   <time name="diis">   33.01   33.01</time>
   <time name="orth">    1.00    1.00</time>
   <time name="total">   43.36   43.37</time>
   <energy>
    <i name="e_fr_energy">   -408.02024709 </i>
    <i name="e_wo_entrp">   -407.98745298 </i>
    <i name="e_0_energy">   -408.00385003 </i>
   </energy>
  </scstep>
  <scstep>
   <time name="diag">    7.33    7.33</time>
   <time name="diis">   31.99   31.99</time>
   <time name="orth">    1.00    1.00</time>
   <time name="total">   42.33   42.35</time>
   <energy>
    <i name="e_fr_energy">   -408.31771083 </i>
    <i name="e_wo_entrp">   -408.28331945 </i>
    <i name="e_0_energy">   -408.30051514 </i>
   </energy>
  </scstep>
  <scstep>
   <time name="diag">    7.33    7.33</time>
   <time name="diis">   31.81   31.81</time>
   <time name="orth">    1.00    1.00</time>
   <time name="total">   42.15   42.17</time>
   <energy>
    <i name="e_fr_energy">   -407.87380135 </i>
    <i name="e_wo_entrp">   -407.84434070 </i>
    <i name="e_0_energy">   -407.85907102 </i>
   </energy>
  </scstep>
  <scstep>
   <time name="diag">    7.35    7.35</time>
   <time name="diis">   30.52   30.52</time>
   <time name="orth">    1.00    1.00</time>
   <time name="total">   40.87   40.89</time>
   <energy>
    <i name="e_fr_energy">   -407.90127908 </i>
    <i name="e_wo_entrp">   -407.85867084 </i>
    <i name="e_0_energy">   -407.87997496 </i>
   </energy>
  </scstep>
  <scstep>
   <time name="diag">    7.35    7.35</time>
   <time name="diis">   30.49   30.49</time>
   <time name="orth">    1.01    1.01</time>
   <time name="total">   40.86   40.87</time>
   <energy>
    <i name="e_fr_energy">   -407.77450843 </i>
    <i name="e_wo_entrp">   -407.74279051 </i>
    <i name="e_0_energy">   -407.75864947 </i>
   </energy>
  </scstep>
  <scstep>
   <time name="diag">    7.35    7.35</time>
   <time name="diis">   31.90   31.90</time>
   <time name="orth">    1.00    1.00</time>
   <time name="total">   42.27   42.29</time>
   <energy>
    <i name="e_fr_energy">   -407.78719317 </i>
    <i name="e_wo_entrp">   -407.75514784 </i>
    <i name="e_0_energy">   -407.77117051 </i>
   </energy>
  </scstep>
  <scstep>
   <time name="diag">    7.36    7.36</time>
   <time name="diis">   30.44   30.44</time>
   <time name="orth">    1.00    1.00</time>
   <time name="total">   40.82   40.84</time>
   <energy>
    <i name="e_fr_energy">   -407.76673531 </i>
    <i name="e_wo_entrp">   -407.73594083 </i>
    <i name="e_0_energy">   -407.75133807 </i>
   </energy>
  </scstep>
  <scstep>
   <time name="diag">    7.36    7.36</time>
   <time name="diis">   30.04   30.04</time>
   <time name="orth">    1.00    1.00</time>
   <time name="total">   40.41   40.43</time>
   <energy>
    <i name="e_fr_energy">   -407.77814838 </i>
    <i name="e_wo_entrp">   -407.74702055 </i>
    <i name="e_0_energy">   -407.76258446 </i>
   </energy>
  </scstep>
  <scstep>
   <time name="diag">    7.35    7.35</time>
   <time name="diis">   28.63   28.63</time>
   <time name="orth">    1.00    1.01</time>
   <time name="total">   39.00   39.02</time>
   <energy>
    <i name="e_fr_energy">   -407.78086782 </i>
    <i name="e_wo_entrp">   -407.74986792 </i>
    <i name="e_0_energy">   -407.76536787 </i>
   </energy>
  </scstep>
  <scstep>
   <time name="diag">    7.33    7.34</time>
   <time name="diis">   29.01   29.01</time>
   <time name="orth">    1.00    1.00</time>
   <time name="total">   39.36   39.75</time>
   <energy>
    <i name="e_fr_energy">   -407.78974527 </i>
    <i name="e_wo_entrp">   -407.75839057 </i>
    <i name="e_0_energy">   -407.77406792 </i>
   </energy>
  </scstep>
  <scstep>
   <time name="diag">    7.33    7.33</time>
   <time name="diis">   25.75   25.75</time>
   <time name="orth">    1.00    1.00</time>
   <time name="total">   36.10   36.11</time>
   <energy>
    <i name="e_fr_energy">   -407.79506890 </i>
    <i name="e_wo_entrp">   -407.76288151 </i>
    <i name="e_0_energy">   -407.77897521 </i>
   </energy>
  </scstep>
  <scstep>
   <time name="diag">    7.33    7.33</time>
   <time name="diis">   23.61   23.62</time>
   <time name="orth">    1.00    1.00</time>
   <time name="total">   33.96   33.98</time>
   <energy>
    <i name="e_fr_energy">   -407.79778014 </i>
    <i name="e_wo_entrp">   -407.76605164 </i>
    <i name="e_0_energy">   -407.78191589 </i>
   </energy>
  </scstep>
  <scstep>
   <time name="diag">    7.34    7.34</time>
   <time name="diis">   20.68   20.68</time>
   <time name="orth">    1.00    1.01</time>
   <time name="total">   31.04   31.05</time>
   <energy>
    <i name="e_fr_energy">   -407.80218712 </i>
    <i name="e_wo_entrp">   -407.77036869 </i>
    <i name="e_0_energy">   -407.78627790 </i>
   </energy>
  </scstep>
  <scstep>
   <time name="diag">    7.34    7.34</time>
   <time name="diis">   18.22   18.22</time>
   <time name="orth">    1.00    1.00</time>
   <time name="total">   28.58   28.59</time>
   <energy>
    <i name="e_fr_energy">   -407.80357317 </i>
    <i name="e_wo_entrp">   -407.77172455 </i>
    <i name="e_0_energy">   -407.78764886 </i>
   </energy>
  </scstep>
  <scstep>
   <time name="diag">    7.32    7.32</time>
   <time name="diis">   17.56   17.56</time>
   <time name="orth">    1.00    1.00</time>
   <time name="total">   27.89   27.91</time>
   <energy>
    <i name="e_fr_energy">   -407.80549619 </i>
    <i name="e_wo_entrp">   -407.77373331 </i>
    <i name="e_0_energy">   -407.78961475 </i>
   </energy>
  </scstep>
  <scstep>
   <time name="diag">    7.31    7.31</time>
   <time name="diis">   16.99   16.99</time>
   <time name="orth">    1.00    1.00</time>
   <time name="total">   27.32   27.33</time>
   <energy>
    <i name="e_fr_energy">   -407.80696698 </i>
    <i name="e_wo_entrp">   -407.77521615 </i>
    <i name="e_0_energy">   -407.79109156 </i>
   </energy>
  </scstep>
  <scstep>
   <time name="diag">    7.31    7.31</time>
   <time name="diis">   16.68   16.68</time>
   <time name="orth">    1.00    1.00</time>
   <time name="total">   27.00   27.02</time>
   <energy>
    <i name="e_fr_energy">   -407.80813272 </i>
    <i name="e_wo_entrp">   -407.77637583 </i>
    <i name="e_0_energy">   -407.79225428 </i>
   </energy>
  </scstep>
  <scstep>
   <time name="diag">    7.31    7.31</time>
   <time name="diis">   16.79   16.79</time>
   <time name="orth">    1.00    1.00</time>
   <time name="total">   27.12   27.13</time>
   <energy>
    <i name="e_fr_energy">   -407.80932561 </i>
    <i name="e_wo_entrp">   -407.77758926 </i>
    <i name="e_0_energy">   -407.79345744 </i>
   </energy>
  </scstep>
  <scstep>
   <time name="diag">    7.31    7.31</time>
   <time name="diis">   17.21   17.21</time>
   <time name="orth">    1.00    1.00</time>
   <time name="total">   27.53   27.55</time>
   <energy>
    <i name="e_fr_energy">   -407.81067575 </i>
    <i name="e_wo_entrp">   -407.77889662 </i>
    <i name="e_0_energy">   -407.79478618 </i>
   </energy>
  </scstep>
  <scstep>
   <time name="diag">    7.32    7.32</time>
   <time name="diis">   17.37   17.37</time>
   <time name="orth">    1.00    1.00</time>
   <time name="total">   27.72   27.73</time>
   <energy>
    <i name="e_fr_energy">   -407.81176320 </i>
    <i name="e_wo_entrp">   -407.77996492 </i>
    <i name="e_0_energy">   -407.79586406 </i>
   </energy>
  </scstep>
  <scstep>
   <time name="diag">    7.31    7.31</time>
   <time name="diis">   16.37   16.37</time>
   <time name="orth">    1.00    1.00</time>
   <time name="total">   26.71   26.73</time>
   <energy>
    <i name="e_fr_energy">   -407.81203823 </i>
    <i name="e_wo_entrp">   -407.78025816 </i>
    <i name="e_0_energy">   -407.79614820 </i>
   </energy>
  </scstep>
  <scstep>
   <time name="diag">    7.31    7.31</time>
   <time name="diis">   16.11   16.11</time>
   <time name="orth">    1.00    1.00</time>
   <time name="total">   26.45   26.46</time>
   <energy>
    <i name="e_fr_energy">   -407.81229899 </i>
    <i name="e_wo_entrp">   -407.78050362 </i>
    <i name="e_0_energy">   -407.79640131 </i>
   </energy>
  </scstep>
  <scstep>
   <time name="diag">    7.31    7.31</time>
   <time name="diis">   15.58   15.58</time>
   <time name="orth">    1.00    1.00</time>
   <time name="total">   24.26   24.28</time>
   <energy>
    <i name="alphaZ">    581.16947118 </i>
    <i name="ewald">  48067.66212763 </i>
    <i name="hartreedc"> -64603.69873636 </i>
    <i name="XCdc">    187.99076332 </i>
    <i name="pawpsdc">  23073.75656101 </i>
    <i name="pawaedc"> -22362.38965618 </i>
    <i name="eentropy">     -0.03178488 </i>
    <i name="bandstr">  -1921.55918042 </i>
    <i name="atom">  16569.28804001 </i>
    <i name="e_fr_energy">   -407.81239468 </i>
    <i name="e_wo_entrp">   -407.78060980 </i>
    <i name="e_0_energy">   -407.79650224 </i>
   </energy>
  </scstep>
  <structure>
   <crystal>
    <varray name="basis" >
     <v>       0.00000000       0.00000000       5.64711014 </v>
     <v>       4.56094328      -4.56094328       0.00000000 </v>
     <v>      15.74534340      15.74534340       0.00000000 </v>
    </varray>
    <i name="volume">    811.07882273 </i>
    <varray name="rec_basis" >
     <v>       0.00000000       0.00000000       0.17708172 </v>
     <v>       0.10962645      -0.10962645       0.00000000 </v>
     <v>       0.03175542       0.03175542       0.00000000 </v>
    </varray>
   </crystal>
   <varray name="positions" >
    <v>       0.41591489       0.55480134       0.00000000 </v>
    <v>       0.91591489       0.55480134       0.00000000 </v>
    <v>       0.16591489       0.25573134       0.05820326 </v>
    <v>       0.66591489       0.25573134       0.05820326 </v>
    <v>       0.16591489       0.85387134       0.05820326 </v>
    <v>       0.66591489       0.85387134       0.05820326 </v>
    <v>       0.41591489       0.55480134       0.11640652 </v>
    <v>       0.91591489       0.55480134       0.11640652 </v>
    <v>       0.41591489       0.05480134       0.14483467 </v>
    <v>       0.91591489       0.05480134       0.14483467 </v>
    <v>       0.16591489       0.35387134       0.20303793 </v>
    <v>       0.66591489       0.35387134       0.20303793 </v>
    <v>       0.16591489       0.75573134       0.20303793 </v>
    <v>       0.66591489       0.75573134       0.20303793 </v>
    <v>       0.41591489       0.05480134       0.26124119 </v>
    <v>       0.91591489       0.05480134       0.26124119 </v>
    <v>       0.41591582       0.55479206       0.28955770 </v>
    <v>       0.91591478       0.55479206       0.28955769 </v>
    <v>       0.16592440       0.25585114       0.34792367 </v>
    <v>       0.66592392       0.25585131       0.34792367 </v>
    <v>       0.16590300       0.85375187       0.34792277 </v>
    <v>       0.66590249       0.85375168       0.34792277 </v>
    <v>       0.41592603       0.55479683       0.40754382 </v>
    <v>       0.91592514       0.55479683       0.40754381 </v>
    <v>       0.41591699       0.05481073       0.43388595 </v>
    <v>       0.91591669       0.05481075       0.43388617 </v>
    <v>       0.16589615       0.35768270       0.49423042 </v>
    <v>       0.66589621       0.35768248       0.49423040 </v>
    <v>       0.16590558       0.75193088       0.49422780 </v>
    <v>       0.66590565       0.75193109       0.49422779 </v>
    <v>       0.41592604       0.05479527       0.54679372 </v>
    <v>       0.91592576       0.05479529       0.54679382 </v>
    <v>       0.41591489       0.05480134       0.05820326 </v>
    <v>       0.91591489       0.05480134       0.05820326 </v>
    <v>       0.16591489       0.55480134       0.05820326 </v>
    <v>       0.66591489       0.55480134       0.05820326 </v>
    <v>       0.16591489       0.05480134       0.20303793 </v>
    <v>       0.66591489       0.05480134       0.20303793 </v>
    <v>       0.41591489       0.55480134       0.20303793 </v>
    <v>       0.91591489       0.55480134       0.20303793 </v>
    <v>       0.41591901       0.05479723       0.34754889 </v>
    <v>       0.91591910       0.05479720       0.34754889 </v>
    <v>       0.16591892       0.55480507       0.34781534 </v>
    <v>       0.66591905       0.55480506       0.34781536 </v>
    <v>       0.16592002       0.05480480       0.49813743 </v>
    <v>       0.66592001       0.05480480       0.49813739 </v>
    <v>       0.41591865       0.55479766       0.48785426 </v>
    <v>       0.91591857       0.55479767       0.48785421 </v>
   </varray>
  </structure>
  <varray name="forces" >
   <v>       1.66684996       1.66900687       0.00154810 </v>
   <v>       1.66682450       1.66898301       0.00144824 </v>
   <v>      -1.07147345      -0.16579135       0.00084688 </v>
   <v>      -1.07154284      -0.16572386       0.00090640 </v>
   <v>      -0.16580279      -1.07121409      -0.00417298 </v>
   <v>      -0.16573209      -1.07128090      -0.00411420 </v>
   <v>       0.23527690       0.23665595       0.00043113 </v>
   <v>       0.23528431       0.23666326       0.00048271 </v>
   <v>      -0.61238155      -0.61046834      -0.00164659 </v>
   <v>      -0.61237938      -0.61046629      -0.00160150 </v>
   <v>      -0.03430630       0.00123534      -0.00157875 </v>
   <v>      -0.03432755       0.00123927      -0.00153504 </v>
   <v>       0.00098950      -0.03836438      -0.00081023 </v>
   <v>       0.00099246      -0.03838297      -0.00076693 </v>
   <v>       0.06893179       0.06801611       0.00019916 </v>
   <v>       0.06883596       0.06792128       0.00024336 </v>
   <v>       0.13141408       0.13308999      -0.00023483 </v>
   <v>       0.13146391       0.13313936      -0.00025017 </v>
   <v>       0.08369962      -0.12477740       0.00142488 </v>
   <v>       0.08365900      -0.12472748       0.00160096 </v>
   <v>      -0.12621500       0.08408569      -0.00150129 </v>
   <v>      -0.12616086       0.08404324      -0.00132056 </v>
   <v>      -0.05188669      -0.04875252       0.00032695 </v>
   <v>      -0.05207021      -0.04893679       0.00032524 </v>
   <v>       0.23459344       0.23431264       0.00114184 </v>
   <v>       0.23463931       0.23435947       0.00110447 </v>
   <v>       0.80984838       0.48211104       0.00103253 </v>
   <v>       0.80986286       0.48209590       0.00134312 </v>
   <v>       0.48332553       0.80569902       0.00010668 </v>
   <v>       0.48330625       0.80571561       0.00041639 </v>
   <v>       0.34998816       0.34928871      -0.00061800 </v>
   <v>       0.34999214       0.34929373      -0.00057956 </v>
   <v>       2.00546023       2.00634208       0.00036628 </v>
   <v>       2.00551859       2.00640232       0.00039722 </v>
   <v>      -2.20726604      -2.20802888       0.00027946 </v>
   <v>      -2.20738550      -2.20814911       0.00026306 </v>
   <v>      -0.05647794      -0.05741227       0.00066447 </v>
   <v>      -0.05649496      -0.05743154       0.00035994 </v>
   <v>       0.13242461       0.13359802       0.00041725 </v>
   <v>       0.13244318       0.13361687       0.00036046 </v>
   <v>       0.46809405       0.46711859       0.00047439 </v>
   <v>       0.46817216       0.46719586       0.00051385 </v>
   <v>      -0.56650977      -0.56605014       0.00075465 </v>
   <v>      -0.56661683      -0.56616275       0.00031933 </v>
   <v>      -0.78455697      -0.78453798       0.00074170 </v>
   <v>      -0.78451470      -0.78449455       0.00075437 </v>
   <v>      -0.99384269      -0.99498675      -0.00043346 </v>
   <v>      -0.99394677      -0.99508890      -0.00043138 </v>
  </varray>
  <varray name="stress" >
   <v>      -4.00249806     -10.03964114       0.00247525 </v>
   <v>     -10.03964111      -3.94053947       0.00675485 </v>
   <v>       0.00247520       0.00675479      -3.36149884 </v>
  </varray>
  <energy>
   <i name="e_fr_energy">   -417.51474131 </i>
   <i name="e_wo_entrp">   -417.49884887 </i>
   <i name="e_0_energy">     -0.03178488 </i>
  </energy>
  <time name="totalsc">  927.92  928.73</time>
 </calculation>
 <calculation>
  <scstep>
   <time name="dav">   47.21   47.22</time>
   <time name="total">   49.23   49.23</time>
   <energy>
    <i name="alphaZ">    581.16947118 </i>
    <i name="ewald">  48054.50150066 </i>
    <i name="hartreedc"> -64589.11982759 </i>
    <i name="XCdc">    188.05865446 </i>
    <i name="pawpsdc">  23073.76133752 </i>
    <i name="pawaedc"> -22362.39433064 </i>
    <i name="eentropy">     -0.03324542 </i>
    <i name="bandstr">  -1923.19080295 </i>
    <i name="atom">  16569.28804001 </i>
    <i name="e_fr_energy">   -407.95920275 </i>
    <i name="e_wo_entrp">   -407.92595733 </i>
    <i name="e_0_energy">   -407.94258004 </i>
   </energy>
  </scstep>
  <scstep>
   <time name="diag">    7.45    7.45</time>
   <time name="diis">   30.53   30.54</time>
   <time name="orth">    1.01    1.01</time>
   <time name="total">   41.00   41.01</time>
   <energy>
    <i name="e_fr_energy">   -408.01546095 </i>
    <i name="e_wo_entrp">   -407.98237313 </i>
    <i name="e_0_energy">   -407.99891704 </i>
   </energy>
  </scstep>
  <scstep>
   <time name="diag">    7.43    7.43</time>
   <time name="diis">   32.65   32.66</time>
   <time name="orth">    1.01    1.01</time>
   <time name="total">   43.10   43.12</time>
   <energy>
[...]
       <r>   -20.0356     0.0000     0.0000 </r>
       <r>   -19.9479     0.0000     0.0000 </r>
       <r>   -19.8602     0.0000     0.0000 </r>
       <r>   -19.7725     0.0000     0.0000 </r>
       <r>   -19.6848     0.0408     0.0036 </r>
       <r>   -19.5970     0.6673     0.0621 </r>
       <r>   -19.5093     1.6143     0.2037 </r>
       <r>   -19.4216     2.9952     0.4665 </r>
       <r>   -19.3339     3.1477     0.7426 </r>
       <r>   -19.2462     3.0691     1.0118 </r>
       <r>   -19.1585     2.9315     1.2689 </r>
       <r>   -19.0707     5.6236     1.7622 </r>
       <r>   -18.9830     7.1772     2.3918 </r>
       <r>   -18.8953     8.3455     3.1238 </r>
       <r>   -18.8076    10.6036     4.0539 </r>
       <r>   -18.7199    12.9466     5.1895 </r>
       <r>   -18.6322    12.7831     6.3108 </r>
       <r>   -18.5444    14.6896     7.5994 </r>
       <r>   -18.4567    14.4789     8.8694 </r>
       <r>   -18.3690    20.0087    10.6245 </r>
       <r>   -18.2813    21.2325    12.4870 </r>
       <r>   -18.1936    25.6015    14.7326 </r>
       <r>   -18.1059    24.0786    16.8447 </r>
       <r>   -18.0181    37.5929    20.1423 </r>
       <r>   -17.9304    38.5356    23.5225 </r>
       <r>   -17.8427    23.0484    25.5442 </r>
       <r>   -17.7550    17.9705    27.1205 </r>
       <r>   -17.6673    20.1276    28.8860 </r>
       <r>   -17.5796    11.2632    29.8740 </r>
       <r>   -17.4918     1.4266    29.9992 </r>
       <r>   -17.4041     0.0096    30.0000 </r>
       <r>   -17.3164     0.0000    30.0000 </r>
       <r>   -17.2287     0.0000    30.0000 </r>
       <r>   -17.1410     0.0007    30.0001 </r>
       <r>   -17.0533     1.0349    30.0908 </r>
       <r>   -16.9655    11.8438    31.1297 </r>
       <r>   -16.8778     8.0769    31.8382 </r>
       <r>   -16.7901     1.8249    31.9983 </r>
       <r>   -16.7024     0.0195    32.0000 </r>
       <r>   -16.6147     0.0000    32.0000 </r>
       <r>   -16.5270     0.0000    32.0000 </r>
       <r>   -16.4392     0.0000    32.0000 </r>
       <r>   -16.3515     0.0000    32.0000 </r>
       <r>   -16.2638     0.0000    32.0000 </r>
       <r>   -16.1761     0.0000    32.0000 </r>
       <r>   -16.0884     0.0000    32.0000 </r>
       <r>   -16.0007     0.0000    32.0000 </r>
       <r>   -15.9129     0.0000    32.0000 </r>
       <r>   -15.8252     0.0000    32.0000 </r>
       <r>   -15.7375     0.0000    32.0000 </r>
       <r>   -15.6498     0.0000    32.0000 </r>
       <r>   -15.5621     0.0000    32.0000 </r>
       <r>   -15.4744     0.0000    32.0000 </r>
       <r>   -15.3866     0.0000    32.0000 </r>
       <r>   -15.2989     0.0000    32.0000 </r>
       <r>   -15.2112     0.0000    32.0000 </r>
       <r>   -15.1235     0.0000    32.0000 </r>
       <r>   -15.0358     0.0000    32.0000 </r>
       <r>   -14.9481     0.0000    32.0000 </r>
       <r>   -14.8603     0.0000    32.0000 </r>
       <r>   -14.7726     0.0000    32.0000 </r>
       <r>   -14.6849     0.0000    32.0000 </r>
       <r>   -14.5972     0.0000    32.0000 </r>
       <r>   -14.5095     0.0000    32.0000 </r>
       <r>   -14.4218     0.0000    32.0000 </r>
       <r>   -14.3340     0.0000    32.0000 </r>
       <r>   -14.2463     0.0000    32.0000 </r>
       <r>   -14.1586     0.0000    32.0000 </r>
       <r>   -14.0709     0.0000    32.0000 </r>
       <r>   -13.9832     0.0000    32.0000 </r>
       <r>   -13.8955     0.0000    32.0000 </r>
       <r>   -13.8077     0.0000    32.0000 </r>
       <r>   -13.7200     0.0000    32.0000 </r>
       <r>   -13.6323     0.0000    32.0000 </r>
       <r>   -13.5446     0.0000    32.0000 </r>
       <r>   -13.4569     0.0000    32.0000 </r>
       <r>   -13.3691     0.0000    32.0000 </r>
       <r>   -13.2814     0.0000    32.0000 </r>
       <r>   -13.1937     0.0000    32.0000 </r>
       <r>   -13.1060     0.0000    32.0000 </r>
       <r>   -13.0183     0.0000    32.0000 </r>
       <r>   -12.9306     0.0000    32.0000 </r>
       <r>   -12.8428     0.0000    32.0000 </r>
       <r>   -12.7551     0.0000    32.0000 </r>
       <r>   -12.6674     0.0000    32.0000 </r>
       <r>   -12.5797     0.0000    32.0000 </r>
       <r>   -12.4920     0.0000    32.0000 </r>
       <r>   -12.4043     0.0000    32.0000 </r>
       <r>   -12.3165     0.0000    32.0000 </r>
       <r>   -12.2288     0.0000    32.0000 </r>
       <r>   -12.1411     0.0000    32.0000 </r>
       <r>   -12.0534     0.0000    32.0000 </r>
       <r>   -11.9657     0.0000    32.0000 </r>
       <r>   -11.8780     0.0000    32.0000 </r>
       <r>   -11.7902     0.0000    32.0000 </r>
       <r>   -11.7025     0.0000    32.0000 </r>
       <r>   -11.6148     0.0000    32.0000 </r>
       <r>   -11.5271     0.0000    32.0000 </r>
       <r>   -11.4394     0.0000    32.0000 </r>
       <r>   -11.3517     0.0000    32.0000 </r>
       <r>   -11.2639     0.0000    32.0000 </r>
       <r>   -11.1762     0.0000    32.0000 </r>
       <r>   -11.0885     0.0000    32.0000 </r>
       <r>   -11.0008     0.0000    32.0000 </r>
       <r>   -10.9131     0.0000    32.0000 </r>
       <r>   -10.8254     0.0000    32.0000 </r>
       <r>   -10.7376     0.0000    32.0000 </r>
       <r>   -10.6499     0.0000    32.0000 </r>
       <r>   -10.5622     0.0000    32.0000 </r>
       <r>   -10.4745     0.0000    32.0000 </r>
       <r>   -10.3868     0.0000    32.0000 </r>
       <r>   -10.2991     0.0000    32.0000 </r>
       <r>   -10.2113     0.0000    32.0000 </r>
       <r>   -10.1236     0.0000    32.0000 </r>
       <r>   -10.0359     0.0000    32.0000 </r>
       <r>    -9.9482     0.0000    32.0000 </r>
       <r>    -9.8605     0.0000    32.0000 </r>
       <r>    -9.7728     0.0000    32.0000 </r>
       <r>    -9.6850     0.0000    32.0000 </r>
       <r>    -9.5973     0.0000    32.0000 </r>
       <r>    -9.5096     0.0000    32.0000 </r>
       <r>    -9.4219     0.0000    32.0000 </r>
       <r>    -9.3342     0.0000    32.0000 </r>
       <r>    -9.2465     0.0000    32.0000 </r>
       <r>    -9.1587     0.0000    32.0000 </r>
       <r>    -9.0710     0.0000    32.0000 </r>
       <r>    -8.9833     0.0000    32.0000 </r>
       <r>    -8.8956     0.0000    32.0000 </r>
       <r>    -8.8079     0.0000    32.0000 </r>
       <r>    -8.7202     0.0000    32.0000 </r>
       <r>    -8.6324     0.0000    32.0000 </r>
       <r>    -8.5447     0.0000    32.0000 </r>
       <r>    -8.4570     0.0000    32.0000 </r>
       <r>    -8.3693     0.0000    32.0000 </r>
       <r>    -8.2816     0.0000    32.0000 </r>
       <r>    -8.1939     0.0000    32.0000 </r>
       <r>    -8.1061     0.0000    32.0000 </r>
       <r>    -8.0184     0.0000    32.0000 </r>
       <r>    -7.9307     0.0000    32.0000 </r>
       <r>    -7.8430     0.0000    32.0000 </r>
       <r>    -7.7553     0.0000    32.0000 </r>
       <r>    -7.6676     0.0000    32.0000 </r>
       <r>    -7.5798     0.0000    32.0000 </r>
       <r>    -7.4921     0.0000    32.0000 </r>
       <r>    -7.4044     0.0000    32.0000 </r>
       <r>    -7.3167     0.0000    32.0000 </r>
       <r>    -7.2290     0.0000    32.0000 </r>
       <r>    -7.1413     0.0006    32.0001 </r>
       <r>    -7.0535     0.1819    32.0160 </r>
       <r>    -6.9658     0.6191    32.0703 </r>
       <r>    -6.8781     1.8480    32.2324 </r>
       <r>    -6.7904     2.5772    32.4585 </r>
       <r>    -6.7027     4.7371    32.8740 </r>
       <r>    -6.6150     4.5001    33.2687 </r>
       <r>    -6.5272     4.7851    33.6885 </r>
       <r>    -6.4395     7.6969    34.3636 </r>
       <r>    -6.3518     7.7413    35.0427 </r>
       <r>    -6.2641    15.1253    36.3694 </r>
       <r>    -6.1764     9.8358    37.2322 </r>
       <r>    -6.0887    16.4040    38.6711 </r>
       <r>    -6.0009    21.5326    40.5598 </r>
       <r>    -5.9132    25.0315    42.7555 </r>
       <r>    -5.8255    27.8453    45.1980 </r>
       <r>    -5.7378    27.3864    47.6003 </r>
       <r>    -5.6501    29.6337    50.1997 </r>
       <r>    -5.5624    24.9928    52.3919 </r>
       <r>    -5.4746    26.0484    54.6768 </r>
       <r>    -5.3869    25.4371    56.9081 </r>
       <r>    -5.2992    13.5185    58.0939 </r>
       <r>    -5.2115    14.3141    59.3495 </r>
       <r>    -5.1238    22.7863    61.3482 </r>
       <r>    -5.0361    11.3423    62.3431 </r>
       <r>    -4.9483    15.3386    63.6886 </r>
       <r>    -4.8606    14.0302    64.9193 </r>
       <r>    -4.7729    19.8914    66.6641 </r>
       <r>    -4.6852    21.2753    68.5303 </r>
       <r>    -4.5975    21.3399    70.4021 </r>
       <r>    -4.5098    17.2769    71.9176 </r>
       <r>    -4.4220    18.8837    73.5740 </r>
       <r>    -4.3343    13.7996    74.7845 </r>
       <r>    -4.2466    17.9770    76.3614 </r>
       <r>    -4.1589    16.9337    77.8467 </r>
       <r>    -4.0712    19.7708    79.5810 </r>
       <r>    -3.9835    19.6321    81.3030 </r>
       <r>    -3.8957    20.6294    83.1126 </r>
       <r>    -3.8080    23.1381    85.1422 </r>
       <r>    -3.7203    16.8950    86.6242 </r>
       <r>    -3.6326    17.9311    88.1970 </r>
       <r>    -3.5449    18.9388    89.8583 </r>
       <r>    -3.4572    21.5701    91.7503 </r>
       <r>    -3.3694    22.5644    93.7296 </r>
       <r>    -3.2817    22.4568    95.6994 </r>
       <r>    -3.1940    22.9921    97.7162 </r>
       <r>    -3.1063    25.3336    99.9384 </r>
       <r>    -3.0186    14.0881   101.1742 </r>
       <r>    -2.9308    22.3509   103.1347 </r>
       <r>    -2.8431    20.9111   104.9690 </r>
       <r>    -2.7554    19.2495   106.6575 </r>
       <r>    -2.6677    22.6368   108.6431 </r>
       <r>    -2.5800    17.6792   110.1939 </r>
       <r>    -2.4923    21.6156   112.0900 </r>
       <r>    -2.4045    17.1255   113.5921 </r>
       <r>    -2.3168    11.4782   114.5990 </r>
       <r>    -2.2291    20.6798   116.4129 </r>
       <r>    -2.1414    20.7175   118.2302 </r>
       <r>    -2.0537    12.2654   119.3061 </r>
       <r>    -1.9660    14.8173   120.6058 </r>
       <r>    -1.8782    16.4429   122.0481 </r>
       <r>    -1.7905    18.0853   123.6345 </r>
       <r>    -1.7028    12.5998   124.7397 </r>
       <r>    -1.6151    13.8274   125.9526 </r>
       <r>    -1.5274     8.0615   126.6598 </r>
       <r>    -1.4397     7.3579   127.3052 </r>
       <r>    -1.3519     2.5709   127.5307 </r>
       <r>    -1.2642     3.4075   127.8296 </r>
       <r>    -1.1765     1.6398   127.9734 </r>
       <r>    -1.0888     0.3012   127.9998 </r>
       <r>    -1.0011     0.0020   128.0000 </r>
       <r>    -0.9134     0.0000   128.0000 </r>
       <r>    -0.8256     0.0000   128.0000 </r>
       <r>    -0.7379     0.0000   128.0000 </r>
       <r>    -0.6502     0.0000   128.0000 </r>
       <r>    -0.5625     0.0000   128.0000 </r>
       <r>    -0.4748     0.0000   128.0000 </r>
       <r>    -0.3871     0.0000   128.0000 </r>
       <r>    -0.2993     0.0000   128.0000 </r>
       <r>    -0.2116     0.0000   128.0000 </r>
       <r>    -0.1239     0.0000   128.0000 </r>
       <r>    -0.0362     0.0000   128.0000 </r>
       <r>     0.0515     0.0000   128.0000 </r>
       <r>     0.1392     0.0000   128.0000 </r>
       <r>     0.2270     0.0000   128.0000 </r>
       <r>     0.3147     0.0000   128.0000 </r>
       <r>     0.4024     0.0000   128.0000 </r>
       <r>     0.4901     0.0093   128.0008 </r>
       <r>     0.5778     0.8317   128.0738 </r>
       <r>     0.6655     2.4339   128.2873 </r>
       <r>     0.7533     2.5778   128.5134 </r>
       <r>     0.8410     7.7911   129.1968 </r>
       <r>     0.9287    19.5135   130.9084 </r>
       <r>     1.0164    21.3266   132.7791 </r>
       <r>     1.1041    20.5447   134.5813 </r>
       <r>     1.1918    21.4672   136.4643 </r>
       <r>     1.2796    23.2824   138.5066 </r>
       <r>     1.3673    25.9528   140.7830 </r>
       <r>     1.4550    29.1310   143.3383 </r>
       <r>     1.5427    28.1791   145.8101 </r>
       <r>     1.6304    23.4317   147.8655 </r>
       <r>     1.7181    30.1572   150.5108 </r>
       <r>     1.8059    22.2842   152.4655 </r>
       <r>     1.8936    22.3779   154.4284 </r>
       <r>     1.9813    25.8872   156.6991 </r>
       <r>     2.0690    28.4227   159.1923 </r>
       <r>     2.1567    28.5583   161.6973 </r>
       <r>     2.2444    31.5618   164.4658 </r>
       <r>     2.3322    22.5940   166.4477 </r>
       <r>     2.4199    24.8461   168.6271 </r>
       <r>     2.5076    25.4875   170.8628 </r>
       <r>     2.5953    23.6199   172.9347 </r>
       <r>     2.6830    16.1383   174.3503 </r>
       <r>     2.7707    13.6323   175.5460 </r>
       <r>     2.8585    13.2077   176.7046 </r>
       <r>     2.9462    11.4510   177.7090 </r>
       <r>     3.0339     6.9237   178.3163 </r>
       <r>     3.1216     4.8670   178.7433 </r>
       <r>     3.2093     5.6310   179.2372 </r>
       <r>     3.2970     7.7294   179.9152 </r>
       <r>     3.3848     5.5881   180.4054 </r>
       <r>     3.4725     9.0884   181.2026 </r>
       <r>     3.5602     9.7512   182.0579 </r>
       <r>     3.6479    10.0493   182.9394 </r>
       <r>     3.7356    11.0296   183.9069 </r>
       <r>     3.8233    14.3724   185.1676 </r>
       <r>     3.9111    11.4766   186.1743 </r>
       <r>     3.9988     7.4610   186.8287 </r>
       <r>     4.0865     4.8188   187.2514 </r>
       <r>     4.1742     2.8213   187.4989 </r>
       <r>     4.2619     3.4854   187.8046 </r>
       <r>     4.3496     2.1309   187.9915 </r>
       <r>     4.4374     0.0964   188.0000 </r>
       <r>     4.5251     0.0000   188.0000 </r>
       <r>     4.6128     0.0000   188.0000 </r>
       <r>     4.7005     0.0000   188.0000 </r>
       <r>     4.7882     0.0000   188.0000 </r>
       <r>     4.8759     0.0000   188.0000 </r>
       <r>     4.9637     0.0000   188.0000 </r>
       <r>     5.0514     0.0000   188.0000 </r>
       <r>     5.1391     0.0000   188.0000 </r>
       <r>     5.2268     0.0000   188.0000 </r>
       <r>     5.3145     0.0000   188.0000 </r>
       <r>     5.4022     0.0000   188.0000 </r>
       <r>     5.4900     0.0000   188.0000 </r>
      </set>
     </set>
    </array>
   </total>
  </dos>
 </calculation>
 <structure name="finalpos" >
  <crystal>
   <varray name="basis" >
    <v>       0.00000000       0.00000000       5.64711014 </v>
    <v>       4.56094328      -4.56094328       0.00000000 </v>
    <v>      15.74534340      15.74534340       0.00000000 </v>
   </varray>
   <i name="volume">    811.07882273 </i>
   <varray name="rec_basis" >
    <v>       0.00000000       0.00000000       0.17708172 </v>
    <v>       0.10962645      -0.10962645       0.00000000 </v>
    <v>       0.03175542       0.03175542       0.00000000 </v>
   </varray>
  </crystal>
  <varray name="positions" >
   <v>       0.41591489       0.55480134       0.00000000 </v>
   <v>       0.91591489       0.55480134       0.00000000 </v>
   <v>       0.16591489       0.25573134       0.05820326 </v>
   <v>       0.66591489       0.25573134       0.05820326 </v>
   <v>       0.16591489       0.85387134       0.05820326 </v>
   <v>       0.66591489       0.85387134       0.05820326 </v>
   <v>       0.41591489       0.55480134       0.11640652 </v>
   <v>       0.91591489       0.55480134       0.11640652 </v>
   <v>       0.41591489       0.05480134       0.14483467 </v>
   <v>       0.91591489       0.05480134       0.14483467 </v>
   <v>       0.16591489       0.35387134       0.20303793 </v>
   <v>       0.66591489       0.35387134       0.20303793 </v>
   <v>       0.16591489       0.75573134       0.20303793 </v>
   <v>       0.66591489       0.75573134       0.20303793 </v>
   <v>       0.41591489       0.05480134       0.26124119 </v>
   <v>       0.91591489       0.05480134       0.26124119 </v>
   <v>       0.41599355       0.55479490       0.28893227 </v>
   <v>       0.91599359       0.55479494       0.28893226 </v>
   <v>       0.16593259       0.25640212       0.34923227 </v>
   <v>       0.66593169       0.25640200       0.34923228 </v>
   <v>       0.16589950       0.85320023       0.34921474 </v>
   <v>       0.66589858       0.85320034       0.34921474 </v>
   <v>       0.41595196       0.55478936       0.40695410 </v>
   <v>       0.91595216       0.55478936       0.40695444 </v>
   <v>       0.41596341       0.05468192       0.43837264 </v>
   <v>       0.91596347       0.05468192       0.43837269 </v>
   <v>       0.16596550       0.36397499       0.50211037 </v>
   <v>       0.66596479       0.36397494       0.50211033 </v>
   <v>       0.16595750       0.74533507       0.50212510 </v>
   <v>       0.66595680       0.74533513       0.50212506 </v>
   <v>       0.41603193       0.05470581       0.55142261 </v>
   <v>       0.91603187       0.05470581       0.55142247 </v>
   <v>       0.41591489       0.05480134       0.05820326 </v>
   <v>       0.91591489       0.05480134       0.05820326 </v>
   <v>       0.16591489       0.55480134       0.05820326 </v>
   <v>       0.66591489       0.55480134       0.05820326 </v>
   <v>       0.16591489       0.05480134       0.20303793 </v>
   <v>       0.66591489       0.05480134       0.20303793 </v>
   <v>       0.41591489       0.55480134       0.20303793 </v>
   <v>       0.91591489       0.55480134       0.20303793 </v>
   <v>       0.41602610       0.05484867       0.35310264 </v>
   <v>       0.91602600       0.05484867       0.35310276 </v>
   <v>       0.16602568       0.55489517       0.34441364 </v>
   <v>       0.66602629       0.55489517       0.34441364 </v>
   <v>       0.16605595       0.05471869       0.50213499 </v>
   <v>       0.66605727       0.05471870       0.50213489 </v>
   <v>       0.41594673       0.55468494       0.48528965 </v>
   <v>       0.91594673       0.55468493       0.48528999 </v>
  </varray>
  <varray name="selective"  type="logical" >
   <v type="logical" >  F  F  F </v>
   <v type="logical" >  F  F  F </v>
   <v type="logical" >  F  F  F </v>
   <v type="logical" >  F  F  F </v>
   <v type="logical" >  F  F  F </v>
   <v type="logical" >  F  F  F </v>
   <v type="logical" >  F  F  F </v>
   <v type="logical" >  F  F  F </v>
   <v type="logical" >  F  F  F </v>
   <v type="logical" >  F  F  F </v>
   <v type="logical" >  F  F  F </v>
   <v type="logical" >  F  F  F </v>
   <v type="logical" >  F  F  F </v>
   <v type="logical" >  F  F  F </v>
   <v type="logical" >  F  F  F </v>
   <v type="logical" >  F  F  F </v>
   <v type="logical" >  T  T  T </v>
   <v type="logical" >  T  T  T </v>
   <v type="logical" >  T  T  T </v>
   <v type="logical" >  T  T  T </v>
   <v type="logical" >  T  T  T </v>
   <v type="logical" >  T  T  T </v>
   <v type="logical" >  T  T  T </v>
   <v type="logical" >  T  T  T </v>
   <v type="logical" >  T  T  T </v>
   <v type="logical" >  T  T  T </v>
   <v type="logical" >  T  T  T </v>
   <v type="logical" >  T  T  T </v>
   <v type="logical" >  T  T  T </v>
   <v type="logical" >  T  T  T </v>
   <v type="logical" >  T  T  T </v>
   <v type="logical" >  T  T  T </v>
   <v type="logical" >  F  F  F </v>
   <v type="logical" >  F  F  F </v>
   <v type="logical" >  F  F  F </v>
   <v type="logical" >  F  F  F </v>
   <v type="logical" >  F  F  F </v>
   <v type="logical" >  F  F  F </v>
   <v type="logical" >  F  F  F </v>
   <v type="logical" >  F  F  F </v>
   <v type="logical" >  T  T  T </v>
   <v type="logical" >  T  T  T </v>
   <v type="logical" >  T  T  T </v>
   <v type="logical" >  T  T  T </v>
   <v type="logical" >  T  T  T </v>
   <v type="logical" >  T  T  T </v>
   <v type="logical" >  T  T  T </v>
   <v type="logical" >  T  T  T </v>
  </varray>
  <nose>
   <v>      -3.00000000       0.00000000       0.00010000       0.00010000 </v>
  </nose>
 </structure>
</modeling>
