MoO2_suf110_2x1x4_2fix                  
           1
     0.000000    0.000000    5.459828
     4.938076   -4.938076    0.000000
    16.626442   16.626442    0.000000
   O    Mo
  32  16
Direct configuration=     1
   0.13081166  0.56969810  0.00000000
   0.63081166  0.56969810  0.00000000
   0.38081166  0.28721810  0.06460374
   0.88081166  0.28721810  0.06460374
   0.38081166  0.85217810  0.06460374
   0.88081166  0.85217810  0.06460374
   0.13081166  0.56969810  0.12920747
   0.63081166  0.56969810  0.12920747
   0.13081166  0.06969810  0.14850068
   0.63081166  0.06969810  0.14850068
   0.38081166  0.35217810  0.21310441
   0.88081166  0.35217810  0.21310441
   0.38081166  0.78721810  0.21310441
   0.88081166  0.78721810  0.21310441
   0.13081166  0.06969810  0.27770815
   0.63081166  0.06969810  0.27770815
   0.13081166  0.56969810  0.29700136
   0.63081166  0.56969810  0.29700136
   0.38081166  0.28721810  0.36160509
   0.88081166  0.28721810  0.36160509
   0.38081166  0.85217810  0.36160509
   0.88081166  0.85217810  0.36160509
   0.13081166  0.56969810  0.42620883
   0.63081166  0.56969810  0.42620883
   0.13081166  0.06969810  0.44550204
   0.63081166  0.06969810  0.44550204
   0.38081166  0.35217810  0.51010577
   0.88081166  0.35217810  0.51010577
   0.38081166  0.78721810  0.51010577
   0.88081166  0.78721810  0.51010577
   0.13081166  0.06969810  0.57470951
   0.63081166  0.06969810  0.57470951
   0.13081166  0.06969810  0.06460374
   0.63081166  0.06969810  0.06460374
   0.38081166  0.56969810  0.06460374
   0.88081166  0.56969810  0.06460374
   0.38081166  0.06969810  0.21310441
   0.88081166  0.06969810  0.21310441
   0.13081166  0.56969810  0.21310441
   0.63081166  0.56969810  0.21310441
   0.13081166  0.06969810  0.36160509
   0.63081166  0.06969810  0.36160509
   0.38081166  0.56969810  0.36160509
   0.88081166  0.56969810  0.36160509
   0.38081166  0.06969810  0.51010577
   0.88081166  0.06969810  0.51010577
   0.13081166  0.56969810  0.51010577
   0.63081166  0.56969810  0.51010577
Direct configuration=     2
   0.13081166  0.56969810  0.00000000
   0.63081166  0.56969810  0.00000000
   0.38081166  0.28721810  0.06460374
   0.88081166  0.28721810  0.06460374
   0.38081166  0.85217810  0.06460374
   0.88081166  0.85217810  0.06460374
   0.13081166  0.56969810  0.12920747
   0.63081166  0.56969810  0.12920747
   0.13081166  0.06969810  0.14850068
   0.63081166  0.06969810  0.14850068
   0.38081166  0.35217810  0.21310441
   0.88081166  0.35217810  0.21310441
   0.38081166  0.78721810  0.21310441
   0.88081166  0.78721810  0.21310441
   0.13081166  0.06969810  0.27770815
   0.63081166  0.06969810  0.27770815
   0.13081184  0.56969665  0.29707109
   0.63081181  0.56969665  0.29707113
   0.38081061  0.28713565  0.36161525
   0.88081004  0.28713565  0.36161524
   0.38081087  0.85226279  0.36161665
   0.88081030  0.85226279  0.36161665
   0.13081485  0.56969733  0.42669577
   0.63081484  0.56969733  0.42669548
   0.13081237  0.06969768  0.44537244
   0.63081228  0.06969767  0.44537237
   0.38080963  0.35255988  0.51024140
   0.88081115  0.35255993  0.51024139
   0.38080940  0.78683866  0.51023979
   0.88081092  0.78683861  0.51023980
   0.13081206  0.06969729  0.57360444
   0.63081193  0.06969729  0.57360437
   0.13081166  0.06969810  0.06460374
   0.63081166  0.06969810  0.06460374
   0.38081166  0.56969810  0.06460374
   0.88081166  0.56969810  0.06460374
   0.38081166  0.06969810  0.21310441
   0.88081166  0.06969810  0.21310441
   0.13081166  0.56969810  0.21310441
   0.63081166  0.56969810  0.21310441
   0.13081155  0.06969917  0.36161460
   0.63081131  0.06969918  0.36161476
   0.38081104  0.56969437  0.36159385
   0.88081086  0.56969437  0.36159383
   0.38080811  0.06969413  0.51155673
   0.88080859  0.06969413  0.51155669
   0.13080998  0.56969852  0.50913293
   0.63081002  0.56969853  0.50913310
Direct configuration=     3
   0.13081166  0.56969810  0.00000000
   0.63081166  0.56969810  0.00000000
   0.38081166  0.28721810  0.06460374
   0.88081166  0.28721810  0.06460374
   0.38081166  0.85217810  0.06460374
   0.88081166  0.85217810  0.06460374
   0.13081166  0.56969810  0.12920747
   0.63081166  0.56969810  0.12920747
   0.13081166  0.06969810  0.14850068
   0.63081166  0.06969810  0.14850068
   0.38081166  0.35217810  0.21310441
   0.88081166  0.35217810  0.21310441
   0.38081166  0.78721810  0.21310441
   0.88081166  0.78721810  0.21310441
   0.13081166  0.06969810  0.27770815
   0.63081166  0.06969810  0.27770815
   0.13081210  0.56969460  0.29716978
   0.63081202  0.56969460  0.29716989
   0.38080911  0.28701896  0.36162963
   0.88080774  0.28701896  0.36162961
   0.38080974  0.85238266  0.36163301
   0.88080837  0.85238268  0.36163300
   0.13081935  0.56969624  0.42738502
   0.63081934  0.56969624  0.42738432
   0.13081336  0.06969708  0.44518901
   0.63081315  0.06969708  0.44518882
   0.38080675  0.35310029  0.51043336
   0.88081043  0.35310041  0.51043336
   0.38080620  0.78630158  0.51042950
   0.88080986  0.78630146  0.51042950
   0.13081261  0.06969614  0.57204026
   0.63081232  0.06969614  0.57204009
   0.13081166  0.06969810  0.06460374
   0.63081166  0.06969810  0.06460374
   0.38081166  0.56969810  0.06460374
   0.88081166  0.56969810  0.06460374
   0.38081166  0.06969810  0.21310441
   0.88081166  0.06969810  0.21310441
   0.13081166  0.56969810  0.21310441
   0.63081166  0.56969810  0.21310441
   0.13081139  0.06970070  0.36162805
   0.63081080  0.06970071  0.36162845
   0.38081015  0.56968909  0.36157793
   0.88080971  0.56968909  0.36157789
   0.38080307  0.06968851  0.51361050
   0.88080424  0.06968851  0.51361040
   0.13080761  0.56969913  0.50775590
   0.63080769  0.56969913  0.50775631
Direct configuration=     4
   0.13081166  0.56969810  0.00000000
   0.63081166  0.56969810  0.00000000
   0.38081166  0.28721810  0.06460374
   0.88081166  0.28721810  0.06460374
   0.38081166  0.85217810  0.06460374
   0.88081166  0.85217810  0.06460374
   0.13081166  0.56969810  0.12920747
   0.63081166  0.56969810  0.12920747
   0.13081166  0.06969810  0.14850068
   0.63081166  0.06969810  0.14850068
   0.38081166  0.35217810  0.21310441
   0.88081166  0.35217810  0.21310441
   0.38081166  0.78721810  0.21310441
   0.88081166  0.78721810  0.21310441
   0.13081166  0.06969810  0.27770815
   0.63081166  0.06969810  0.27770815
   0.13081182  0.56969365  0.29735366
   0.63081171  0.56969365  0.29735398
   0.38080545  0.28704762  0.36163521
   0.88080432  0.28704756  0.36163519
   0.38081120  0.85235545  0.36164035
   0.88081006  0.85235552  0.36164034
   0.13081847  0.56969665  0.42760268
   0.63081842  0.56969665  0.42760216
   0.13081429  0.06969938  0.44539028
   0.63081409  0.06969937  0.44539010
   0.38080364  0.35344209  0.51071181
   0.88080805  0.35344214  0.51071181
   0.38080644  0.78596437  0.51070746
   0.88081084  0.78596431  0.51070746
   0.13080846  0.06969668  0.57200248
   0.63080820  0.06969668  0.57200232
   0.13081166  0.06969810  0.06460374
   0.63081166  0.06969810  0.06460374
   0.38081166  0.56969810  0.06460374
   0.88081166  0.56969810  0.06460374
   0.38081166  0.06969810  0.21310441
   0.88081166  0.06969810  0.21310441
   0.13081166  0.56969810  0.21310441
   0.63081166  0.56969810  0.21310441
   0.13081012  0.06969902  0.36200467
   0.63080948  0.06969902  0.36200496
   0.38080964  0.56968634  0.36135393
   0.88080827  0.56968634  0.36135389
   0.38080915  0.06968644  0.51346724
   0.88080602  0.06968644  0.51346712
   0.13080765  0.56970019  0.50677252
   0.63080776  0.56970019  0.50677284
Direct configuration=     5
   0.13081166  0.56969810  0.00000000
   0.63081166  0.56969810  0.00000000
   0.38081166  0.28721810  0.06460374
   0.88081166  0.28721810  0.06460374
   0.38081166  0.85217810  0.06460374
   0.88081166  0.85217810  0.06460374
   0.13081166  0.56969810  0.12920747
   0.63081166  0.56969810  0.12920747
   0.13081166  0.06969810  0.14850068
   0.63081166  0.06969810  0.14850068
   0.38081166  0.35217810  0.21310441
   0.88081166  0.35217810  0.21310441
   0.38081166  0.78721810  0.21310441
   0.88081166  0.78721810  0.21310441
   0.13081166  0.06969810  0.27770815
   0.63081166  0.06969810  0.27770815
   0.13081142  0.56969226  0.29762277
   0.63081125  0.56969226  0.29762339
   0.38080010  0.28708955  0.36164337
   0.88079932  0.28708941  0.36164335
   0.38081333  0.85231562  0.36165110
   0.88081254  0.85231577  0.36165108
   0.13081718  0.56969725  0.42792123
   0.63081708  0.56969725  0.42792095
   0.13081564  0.06970274  0.44568485
   0.63081546  0.06970273  0.44568468
   0.38079910  0.35394231  0.51111931
   0.88080457  0.35394228  0.51111932
   0.38080680  0.78547085  0.51111427
   0.88081227  0.78547089  0.51111427
   0.13080237  0.06969747  0.57194718
   0.63080216  0.06969747  0.57194705
   0.13081166  0.06969810  0.06460374
   0.63081166  0.06969810  0.06460374
   0.38081166  0.56969810  0.06460374
   0.88081166  0.56969810  0.06460374
   0.38081166  0.06969810  0.21310441
   0.88081166  0.06969810  0.21310441
   0.13081166  0.56969810  0.21310441
   0.63081166  0.56969810  0.21310441
   0.13080825  0.06969655  0.36255587
   0.63080754  0.06969655  0.36255598
   0.38080889  0.56968230  0.36102609
   0.88080615  0.56968231  0.36102607
   0.38081804  0.06968341  0.51325757
   0.88080862  0.06968341  0.51325742
   0.13080771  0.56970173  0.50533332
   0.63080785  0.56970174  0.50533351
Direct configuration=     6
   0.13081166  0.56969810  0.00000000
   0.63081166  0.56969810  0.00000000
   0.38081166  0.28721810  0.06460374
   0.88081166  0.28721810  0.06460374
   0.38081166  0.85217810  0.06460374
   0.88081166  0.85217810  0.06460374
   0.13081166  0.56969810  0.12920747
   0.63081166  0.56969810  0.12920747
   0.13081166  0.06969810  0.14850068
   0.63081166  0.06969810  0.14850068
   0.38081166  0.35217810  0.21310441
   0.88081166  0.35217810  0.21310441
   0.38081166  0.78721810  0.21310441
   0.88081166  0.78721810  0.21310441
   0.13081166  0.06969810  0.27770815
   0.63081166  0.06969810  0.27770815
   0.13081235  0.56968761  0.29769923
   0.63081219  0.56968761  0.29770012
   0.38079688  0.28707776  0.36172886
   0.88079622  0.28707759  0.36172885
   0.38081411  0.85232783  0.36173856
   0.88081344  0.85232801  0.36173854
   0.13081336  0.56969825  0.42728897
   0.63081327  0.56969825  0.42728917
   0.13081609  0.06970333  0.44597527
   0.63081595  0.06970333  0.44597498
   0.38080753  0.35458607  0.51142114
   0.88081268  0.35458596  0.51142114
   0.38080415  0.78483232  0.51141563
   0.88080930  0.78483240  0.51141563
   0.13079914  0.06969871  0.57207018
   0.63079901  0.06969871  0.57207109
   0.13081166  0.06969810  0.06460374
   0.63081166  0.06969810  0.06460374
   0.38081166  0.56969810  0.06460374
   0.88081166  0.56969810  0.06460374
   0.38081166  0.06969810  0.21310441
   0.88081166  0.06969810  0.21310441
   0.13081166  0.56969810  0.21310441
   0.63081166  0.56969810  0.21310441
   0.13080454  0.06969567  0.36278717
   0.63080373  0.06969567  0.36278671
   0.38080893  0.56968165  0.36060598
   0.88080376  0.56968165  0.36060596
   0.38082529  0.06968429  0.51312163
   0.88080804  0.06968429  0.51312147
   0.13080672  0.56969985  0.50507142
   0.63080708  0.56969985  0.50507138
Direct configuration=     7
   0.13081166  0.56969810  0.00000000
   0.63081166  0.56969810  0.00000000
   0.38081166  0.28721810  0.06460374
   0.88081166  0.28721810  0.06460374
   0.38081166  0.85217810  0.06460374
   0.88081166  0.85217810  0.06460374
   0.13081166  0.56969810  0.12920747
   0.63081166  0.56969810  0.12920747
   0.13081166  0.06969810  0.14850068
   0.63081166  0.06969810  0.14850068
   0.38081166  0.35217810  0.21310441
   0.88081166  0.35217810  0.21310441
   0.38081166  0.78721810  0.21310441
   0.88081166  0.78721810  0.21310441
   0.13081166  0.06969810  0.27770815
   0.63081166  0.06969810  0.27770815
   0.13081421  0.56967833  0.29785175
   0.63081407  0.56967833  0.29785318
   0.38079047  0.28705424  0.36189940
   0.88079003  0.28705401  0.36189938
   0.38081567  0.85235217  0.36191302
   0.88081523  0.85235241  0.36191301
   0.13080574  0.56970023  0.42602777
   0.63080567  0.56970022  0.42602889
   0.13081701  0.06970452  0.44655459
   0.63081692  0.06970451  0.44655405
   0.38082435  0.35587021  0.51202321
   0.88082887  0.35586997  0.51202322
   0.38079885  0.78355858  0.51201678
   0.88080337  0.78355877  0.51201678
   0.13079270  0.06970118  0.57231552
   0.63079272  0.06970117  0.57231850
   0.13081166  0.06969810  0.06460374
   0.63081166  0.06969810  0.06460374
   0.38081166  0.56969810  0.06460374
   0.88081166  0.56969810  0.06460374
   0.38081166  0.06969810  0.21310441
   0.88081166  0.06969810  0.21310441
   0.13081166  0.56969810  0.21310441
   0.63081166  0.56969810  0.21310441
   0.13079713  0.06969391  0.36324857
   0.63079613  0.06969391  0.36324695
   0.38080900  0.56968034  0.35976795
   0.88079901  0.56968034  0.35976795
   0.38083975  0.06968606  0.51285046
   0.88080688  0.06968606  0.51285029
   0.13080474  0.56969610  0.50454899
   0.63080554  0.56969610  0.50454849
Direct configuration=     8
   0.13081166  0.56969810  0.00000000
   0.63081166  0.56969810  0.00000000
   0.38081166  0.28721810  0.06460374
   0.88081166  0.28721810  0.06460374
   0.38081166  0.85217810  0.06460374
   0.88081166  0.85217810  0.06460374
   0.13081166  0.56969810  0.12920747
   0.63081166  0.56969810  0.12920747
   0.13081166  0.06969810  0.14850068
   0.63081166  0.06969810  0.14850068
   0.38081166  0.35217810  0.21310441
   0.88081166  0.35217810  0.21310441
   0.38081166  0.78721810  0.21310441
   0.88081166  0.78721810  0.21310441
   0.13081166  0.06969810  0.27770815
   0.63081166  0.06969810  0.27770815
   0.13081532  0.56967566  0.29755881
   0.63081525  0.56967566  0.29756001
   0.38079064  0.28699385  0.36200977
   0.88079012  0.28699359  0.36200976
   0.38081365  0.85241159  0.36202220
   0.88081314  0.85241185  0.36202220
   0.13080402  0.56969877  0.42544262
   0.63080392  0.56969878  0.42544406
   0.13081430  0.06970591  0.44677319
   0.63081420  0.06970590  0.44677195
   0.38083136  0.35649250  0.51236195
   0.88083522  0.35649209  0.51236195
   0.38079686  0.78294224  0.51235541
   0.88080073  0.78294263  0.51235542
   0.13078957  0.06970409  0.57225433
   0.63078961  0.06970409  0.57225944
   0.13081166  0.06969810  0.06460374
   0.63081166  0.06969810  0.06460374
   0.38081166  0.56969810  0.06460374
   0.88081166  0.56969810  0.06460374
   0.38081166  0.06969810  0.21310441
   0.88081166  0.06969810  0.21310441
   0.13081166  0.56969810  0.21310441
   0.63081166  0.56969810  0.21310441
   0.13079529  0.06969558  0.36333778
   0.63079414  0.06969556  0.36333524
   0.38080944  0.56967978  0.35952887
   0.88079296  0.56967978  0.35952887
   0.38084695  0.06968585  0.51326247
   0.88080197  0.06968592  0.51326230
   0.13080359  0.56969651  0.50407894
   0.63080542  0.56969649  0.50407851
Direct configuration=     9
   0.13081166  0.56969810  0.00000000
   0.63081166  0.56969810  0.00000000
   0.38081166  0.28721810  0.06460374
   0.88081166  0.28721810  0.06460374
   0.38081166  0.85217810  0.06460374
   0.88081166  0.85217810  0.06460374
   0.13081166  0.56969810  0.12920747
   0.63081166  0.56969810  0.12920747
   0.13081166  0.06969810  0.14850068
   0.63081166  0.06969810  0.14850068
   0.38081166  0.35217810  0.21310441
   0.88081166  0.35217810  0.21310441
   0.38081166  0.78721810  0.21310441
   0.88081166  0.78721810  0.21310441
   0.13081166  0.06969810  0.27770815
   0.63081166  0.06969810  0.27770815
   0.13081640  0.56967310  0.29727778
   0.63081638  0.56967310  0.29727874
   0.38079080  0.28693591  0.36211566
   0.88079021  0.28693562  0.36211565
   0.38081172  0.85246859  0.36212695
   0.88081114  0.85246887  0.36212695
   0.13080236  0.56969738  0.42488125
   0.63080225  0.56969739  0.42488298
   0.13081170  0.06970725  0.44698291
   0.63081158  0.06970724  0.44698101
   0.38083809  0.35708952  0.51268692
   0.88084132  0.35708893  0.51268693
   0.38079494  0.78235094  0.51268029
   0.88079819  0.78235151  0.51268029
   0.13078657  0.06970688  0.57219561
   0.63078663  0.06970688  0.57220277
   0.13081166  0.06969810  0.06460374
   0.63081166  0.06969810  0.06460374
   0.38081166  0.56969810  0.06460374
   0.88081166  0.56969810  0.06460374
   0.38081166  0.06969810  0.21310441
   0.88081166  0.06969810  0.21310441
   0.13081166  0.56969810  0.21310441
   0.63081166  0.56969810  0.21310441
   0.13079352  0.06969717  0.36342338
   0.63079223  0.06969714  0.36341995
   0.38080987  0.56967923  0.35929949
   0.88078716  0.56967924  0.35929950
   0.38085386  0.06968565  0.51365775
   0.88079726  0.06968578  0.51365758
   0.13080248  0.56969691  0.50362799
   0.63080531  0.56969686  0.50362762
Direct configuration=    10
   0.13081166  0.56969810  0.00000000
   0.63081166  0.56969810  0.00000000
   0.38081166  0.28721810  0.06460374
   0.88081166  0.28721810  0.06460374
   0.38081166  0.85217810  0.06460374
   0.88081166  0.85217810  0.06460374
   0.13081166  0.56969810  0.12920747
   0.63081166  0.56969810  0.12920747
   0.13081166  0.06969810  0.14850068
   0.63081166  0.06969810  0.14850068
   0.38081166  0.35217810  0.21310441
   0.88081166  0.35217810  0.21310441
   0.38081166  0.78721810  0.21310441
   0.88081166  0.78721810  0.21310441
   0.13081166  0.06969810  0.27770815
   0.63081166  0.06969810  0.27770815
   0.13081854  0.56966798  0.29671570
   0.63081864  0.56966797  0.29671621
   0.38079113  0.28682004  0.36232743
   0.88079039  0.28681969  0.36232743
   0.38080786  0.85258260  0.36233644
   0.88080712  0.85258291  0.36233645
   0.13079906  0.56969460  0.42375849
   0.63079889  0.56969462  0.42376083
   0.13080650  0.06970994  0.44740235
   0.63080636  0.06970991  0.44739912
   0.38085154  0.35828355  0.51333686
   0.88085351  0.35828262  0.51333688
   0.38079111  0.78116833  0.51333004
   0.88079312  0.78116927  0.51333005
   0.13078056  0.06971246  0.57207819
   0.63078066  0.06971247  0.57208943
   0.13081166  0.06969810  0.06460374
   0.63081166  0.06969810  0.06460374
   0.38081166  0.56969810  0.06460374
   0.88081166  0.56969810  0.06460374
   0.38081166  0.06969810  0.21310441
   0.88081166  0.06969810  0.21310441
   0.13081166  0.56969810  0.21310441
   0.63081166  0.56969810  0.21310441
   0.13078998  0.06970036  0.36359457
   0.63078841  0.06970030  0.36358935
   0.38081072  0.56967815  0.35884073
   0.88077556  0.56967817  0.35884076
   0.38086767  0.06968524  0.51444830
   0.88078784  0.06968551  0.51444814
   0.13080027  0.56969769  0.50272609
   0.63080508  0.56969761  0.50272585
Direct configuration=    11
   0.13081166  0.56969810  0.00000000
   0.63081166  0.56969810  0.00000000
   0.38081166  0.28721810  0.06460374
   0.88081166  0.28721810  0.06460374
   0.38081166  0.85217810  0.06460374
   0.88081166  0.85217810  0.06460374
   0.13081166  0.56969810  0.12920747
   0.63081166  0.56969810  0.12920747
   0.13081166  0.06969810  0.14850068
   0.63081166  0.06969810  0.14850068
   0.38081166  0.35217810  0.21310441
   0.88081166  0.35217810  0.21310441
   0.38081166  0.78721810  0.21310441
   0.88081166  0.78721810  0.21310441
   0.13081166  0.06969810  0.27770815
   0.63081166  0.06969810  0.27770815
   0.13081790  0.56966490  0.29607338
   0.63081770  0.56966489  0.29607220
   0.38079343  0.28683007  0.36242689
   0.88079167  0.28682966  0.36242690
   0.38079885  0.85257107  0.36243059
   0.88079711  0.85257143  0.36243061
   0.13080352  0.56968897  0.42337648
   0.63080270  0.56968899  0.42337976
   0.13080189  0.06970883  0.44766654
   0.63080127  0.06970950  0.44766185
   0.38086035  0.35901357  0.51382989
   0.88086205  0.35901136  0.51382993
   0.38078738  0.78045018  0.51382255
   0.88078910  0.78045241  0.51382259
   0.13078080  0.06971761  0.57256459
   0.63077888  0.06971786  0.57258314
   0.13081166  0.06969810  0.06460374
   0.63081166  0.06969810  0.06460374
   0.38081166  0.56969810  0.06460374
   0.88081166  0.56969810  0.06460374
   0.38081166  0.06969810  0.21310441
   0.88081166  0.06969810  0.21310441
   0.13081166  0.56969810  0.21310441
   0.63081166  0.56969810  0.21310441
   0.13078942  0.06970103  0.36379093
   0.63078740  0.06970110  0.36378349
   0.38082616  0.56967942  0.35850974
   0.88076657  0.56967946  0.35850978
   0.38087899  0.06968455  0.51466759
   0.88076484  0.06968515  0.51466751
   0.13080010  0.56970929  0.50178657
   0.63081141  0.56970922  0.50178711
Direct configuration=    12
   0.13081166  0.56969810  0.00000000
   0.63081166  0.56969810  0.00000000
   0.38081166  0.28721810  0.06460374
   0.88081166  0.28721810  0.06460374
   0.38081166  0.85217810  0.06460374
   0.88081166  0.85217810  0.06460374
   0.13081166  0.56969810  0.12920747
   0.63081166  0.56969810  0.12920747
   0.13081166  0.06969810  0.14850068
   0.63081166  0.06969810  0.14850068
   0.38081166  0.35217810  0.21310441
   0.88081166  0.35217810  0.21310441
   0.38081166  0.78721810  0.21310441
   0.88081166  0.78721810  0.21310441
   0.13081166  0.06969810  0.27770815
   0.63081166  0.06969810  0.27770815
   0.13081759  0.56966340  0.29576114
   0.63081724  0.56966339  0.29575915
   0.38079455  0.28683494  0.36247524
   0.88079229  0.28683451  0.36247526
   0.38079447  0.85256546  0.36247635
   0.88079224  0.85256584  0.36247638
   0.13080569  0.56968623  0.42319078
   0.63080456  0.56968626  0.42319452
   0.13079966  0.06970829  0.44779496
   0.63079880  0.06970930  0.44778956
   0.38086463  0.35936843  0.51406954
   0.88086619  0.35936560  0.51406960
   0.38078557  0.78010109  0.51406196
   0.88078714  0.78010394  0.51406201
   0.13078091  0.06972011  0.57280103
   0.63077802  0.06972048  0.57282313
   0.13081166  0.06969810  0.06460374
   0.63081166  0.06969810  0.06460374
   0.38081166  0.56969810  0.06460374
   0.88081166  0.56969810  0.06460374
   0.38081166  0.06969810  0.21310441
   0.88081166  0.06969810  0.21310441
   0.13081166  0.56969810  0.21310441
   0.63081166  0.56969810  0.21310441
   0.13078914  0.06970135  0.36388638
   0.63078690  0.06970148  0.36387787
   0.38083366  0.56968004  0.35834885
   0.88076221  0.56968010  0.35834890
   0.38088449  0.06968422  0.51477418
   0.88075366  0.06968497  0.51477414
   0.13080002  0.56971493  0.50132988
   0.63081449  0.56971487  0.50133078
Direct configuration=    13
   0.13081166  0.56969810  0.00000000
   0.63081166  0.56969810  0.00000000
   0.38081166  0.28721810  0.06460374
   0.88081166  0.28721810  0.06460374
   0.38081166  0.85217810  0.06460374
   0.88081166  0.85217810  0.06460374
   0.13081166  0.56969810  0.12920747
   0.63081166  0.56969810  0.12920747
   0.13081166  0.06969810  0.14850068
   0.63081166  0.06969810  0.14850068
   0.38081166  0.35217810  0.21310441
   0.88081166  0.35217810  0.21310441
   0.38081166  0.78721810  0.21310441
   0.88081166  0.78721810  0.21310441
   0.13081166  0.06969810  0.27770815
   0.63081166  0.06969810  0.27770815
   0.13081611  0.56966499  0.29579514
   0.63081436  0.56966497  0.29579037
   0.38079691  0.28693832  0.36241394
   0.88079246  0.28693789  0.36241397
   0.38078725  0.85246069  0.36241070
   0.88078278  0.85246104  0.36241074
   0.13080943  0.56968635  0.42334304
   0.63080703  0.56968589  0.42335054
   0.13080187  0.06970883  0.44776093
   0.63080120  0.06970974  0.44775481
   0.38086392  0.35952836  0.51404320
   0.88086310  0.35952280  0.51404333
   0.38078701  0.77994267  0.51403341
   0.88078615  0.77994825  0.51403355
   0.13078859  0.06972177  0.57322009
   0.63078544  0.06972108  0.57324759
   0.13081166  0.06969810  0.06460374
   0.63081166  0.06969810  0.06460374
   0.38081166  0.56969810  0.06460374
   0.88081166  0.56969810  0.06460374
   0.38081166  0.06969810  0.21310441
   0.88081166  0.06969810  0.21310441
   0.13081166  0.56969810  0.21310441
   0.63081166  0.56969810  0.21310441
   0.13079022  0.06970061  0.36394743
   0.63078779  0.06970089  0.36393697
   0.38085871  0.56968208  0.35811070
   0.88075297  0.56968172  0.35811081
   0.38089436  0.06968944  0.51473116
   0.88072719  0.06969035  0.51473115
   0.13079340  0.56971642  0.50146374
   0.63081823  0.56971612  0.50146326
Direct configuration=    14
   0.13081166  0.56969810  0.00000000
   0.63081166  0.56969810  0.00000000
   0.38081166  0.28721810  0.06460374
   0.88081166  0.28721810  0.06460374
   0.38081166  0.85217810  0.06460374
   0.88081166  0.85217810  0.06460374
   0.13081166  0.56969810  0.12920747
   0.63081166  0.56969810  0.12920747
   0.13081166  0.06969810  0.14850068
   0.63081166  0.06969810  0.14850068
   0.38081166  0.35217810  0.21310441
   0.88081166  0.35217810  0.21310441
   0.38081166  0.78721810  0.21310441
   0.88081166  0.78721810  0.21310441
   0.13081166  0.06969810  0.27770815
   0.63081166  0.06969810  0.27770815
   0.13081567  0.56966545  0.29580517
   0.63081351  0.56966543  0.29579959
   0.38079760  0.28696882  0.36239585
   0.88079251  0.28696840  0.36239589
   0.38078511  0.85242978  0.36239133
   0.88077998  0.85243012  0.36239138
   0.13081053  0.56968638  0.42338796
   0.63080776  0.56968578  0.42339657
   0.13080253  0.06970898  0.44775090
   0.63080191  0.06970986  0.44774455
   0.38086371  0.35957554  0.51403542
   0.88086219  0.35956917  0.51403558
   0.38078743  0.77989593  0.51402498
   0.88078585  0.77990232  0.51402515
   0.13079085  0.06972226  0.57334373
   0.63078763  0.06972126  0.57337282
   0.13081166  0.06969810  0.06460374
   0.63081166  0.06969810  0.06460374
   0.38081166  0.56969810  0.06460374
   0.88081166  0.56969810  0.06460374
   0.38081166  0.06969810  0.21310441
   0.88081166  0.06969810  0.21310441
   0.13081166  0.56969810  0.21310441
   0.63081166  0.56969810  0.21310441
   0.13079054  0.06970040  0.36396545
   0.63078805  0.06970072  0.36395441
   0.38086610  0.56968268  0.35804044
   0.88075025  0.56968220  0.35804056
   0.38089727  0.06969099  0.51471847
   0.88071938  0.06969193  0.51471846
   0.13079145  0.56971685  0.50150324
   0.63081933  0.56971649  0.50150234
Direct configuration=    15
   0.13081166  0.56969810  0.00000000
   0.63081166  0.56969810  0.00000000
   0.38081166  0.28721810  0.06460374
   0.88081166  0.28721810  0.06460374
   0.38081166  0.85217810  0.06460374
   0.88081166  0.85217810  0.06460374
   0.13081166  0.56969810  0.12920747
   0.63081166  0.56969810  0.12920747
   0.13081166  0.06969810  0.14850068
   0.63081166  0.06969810  0.14850068
   0.38081166  0.35217810  0.21310441
   0.88081166  0.35217810  0.21310441
   0.38081166  0.78721810  0.21310441
   0.88081166  0.78721810  0.21310441
   0.13081166  0.06969810  0.27770815
   0.63081166  0.06969810  0.27770815
   0.13081480  0.56966639  0.29582523
   0.63081182  0.56966636  0.29581801
   0.38079899  0.28702983  0.36235968
   0.88079262  0.28702940  0.36235973
   0.38078085  0.85236795  0.36235258
   0.88077440  0.85236828  0.36235265
   0.13081274  0.56968645  0.42347781
   0.63080922  0.56968556  0.42348864
   0.13080383  0.06970930  0.44773082
   0.63080333  0.06971012  0.44772404
   0.38086328  0.35966992  0.51401988
   0.88086036  0.35966193  0.51402008
   0.38078828  0.77980245  0.51400814
   0.88078526  0.77981044  0.51400835
   0.13079538  0.06972324  0.57359101
   0.63079201  0.06972161  0.57362329
   0.13081166  0.06969810  0.06460374
   0.63081166  0.06969810  0.06460374
   0.38081166  0.56969810  0.06460374
   0.88081166  0.56969810  0.06460374
   0.38081166  0.06969810  0.21310441
   0.88081166  0.06969810  0.21310441
   0.13081166  0.56969810  0.21310441
   0.63081166  0.56969810  0.21310441
   0.13079117  0.06969996  0.36400147
   0.63078857  0.06970037  0.36398929
   0.38088088  0.56968388  0.35789991
   0.88074480  0.56968316  0.35790006
   0.38090309  0.06969407  0.51469308
   0.88070376  0.06969510  0.51469309
   0.13078754  0.56971773  0.50158224
   0.63082154  0.56971723  0.50158051
Direct configuration=    16
   0.13081166  0.56969810  0.00000000
   0.63081166  0.56969810  0.00000000
   0.38081166  0.28721810  0.06460374
   0.88081166  0.28721810  0.06460374
   0.38081166  0.85217810  0.06460374
   0.88081166  0.85217810  0.06460374
   0.13081166  0.56969810  0.12920747
   0.63081166  0.56969810  0.12920747
   0.13081166  0.06969810  0.14850068
   0.63081166  0.06969810  0.14850068
   0.38081166  0.35217810  0.21310441
   0.88081166  0.35217810  0.21310441
   0.38081166  0.78721810  0.21310441
   0.88081166  0.78721810  0.21310441
   0.13081166  0.06969810  0.27770815
   0.63081166  0.06969810  0.27770815
   0.13081514  0.56966603  0.29581742
   0.63081248  0.56966600  0.29581084
   0.38079845  0.28700608  0.36237376
   0.88079258  0.28700565  0.36237381
   0.38078251  0.85239202  0.36236767
   0.88077657  0.85239235  0.36236772
   0.13081188  0.56968642  0.42344283
   0.63080865  0.56968565  0.42345280
   0.13080332  0.06970918  0.44773863
   0.63080278  0.06971002  0.44773203
   0.38086345  0.35963318  0.51402593
   0.88086107  0.35962582  0.51402612
   0.38078795  0.77983884  0.51401469
   0.88078549  0.77984621  0.51401489
   0.13079362  0.06972285  0.57349474
   0.63079030  0.06972147  0.57352579
   0.13081166  0.06969810  0.06460374
   0.63081166  0.06969810  0.06460374
   0.38081166  0.56969810  0.06460374
   0.88081166  0.56969810  0.06460374
   0.38081166  0.06969810  0.21310441
   0.88081166  0.06969810  0.21310441
   0.13081166  0.56969810  0.21310441
   0.63081166  0.56969810  0.21310441
   0.13079093  0.06970013  0.36398745
   0.63078836  0.06970051  0.36397571
   0.38087513  0.56968342  0.35795462
   0.88074692  0.56968279  0.35795476
   0.38090083  0.06969287  0.51470297
   0.88070984  0.06969387  0.51470297
   0.13078906  0.56971739  0.50155149
   0.63082068  0.56971694  0.50155008
Direct configuration=    17
   0.13081166  0.56969810  0.00000000
   0.63081166  0.56969810  0.00000000
   0.38081166  0.28721810  0.06460374
   0.88081166  0.28721810  0.06460374