  48  48   0   0
  0.1687396E+02  0.5844679E-09  0.6319380E-09  0.2192922E-08  0.1000000E-15
  1.000000000000000E-004
  CAR 
 GeO2_suf110_2x1x4_2fix                  
     12.17237647    -23.14773859  301      0.04965527      1.00000000
    -23.148  0.0000E+00  0.0000E+00  0.0000E+00  0.0000E+00
    -23.030  0.0000E+00  0.0000E+00  0.0000E+00  0.0000E+00
    -22.912  0.0000E+00  0.0000E+00  0.0000E+00  0.0000E+00
    -22.795  0.0000E+00  0.0000E+00  0.0000E+00  0.0000E+00
    -22.677  0.0000E+00  0.0000E+00  0.0000E+00  0.0000E+00
    -22.559  0.0000E+00  0.0000E+00  0.0000E+00  0.0000E+00
    -22.441  0.0000E+00  0.0000E+00  0.0000E+00  0.0000E+00
    -22.324  0.0000E+00  0.0000E+00  0.0000E+00  0.0000E+00
    -22.206  0.0000E+00  0.0000E+00  0.0000E+00  0.0000E+00
    -22.088  0.0000E+00  0.0000E+00  0.0000E+00  0.0000E+00
    -21.970  0.0000E+00  0.0000E+00  0.0000E+00  0.0000E+00
    -21.853  0.0000E+00  0.0000E+00  0.0000E+00  0.0000E+00
    -21.735  0.1344E-10  0.1344E-10  0.1582E-11  0.1582E-11
    -21.617  0.9047E-05  0.9047E-05  0.1065E-05  0.1065E-05
    -21.499  0.5087E-03  0.5087E-03  0.6096E-04  0.6096E-04
    -21.382  0.1630E-02  0.1630E-02  0.2528E-03  0.2528E-03
    -21.264  0.2597E-02  0.2597E-02  0.5586E-03  0.5586E-03
    -21.146  0.2138E-02  0.2138E-02  0.8102E-03  0.8102E-03
    -21.029  0.2816E-02  0.2816E-02  0.1142E-02  0.1142E-02
    -20.911  0.3238E-02  0.3238E-02  0.1523E-02  0.1523E-02
    -20.793  0.3161E-02  0.3161E-02  0.1895E-02  0.1895E-02
    -20.675  0.3535E-02  0.3535E-02  0.2311E-02  0.2311E-02
    -20.558  0.5625E-02  0.5625E-02  0.2974E-02  0.2974E-02
    -20.440  0.2888E-02  0.2888E-02  0.3314E-02  0.3314E-02
    -20.322  0.2409E-02  0.2409E-02  0.3597E-02  0.3597E-02
    -20.204  0.8990E-02  0.8990E-02  0.4656E-02  0.4656E-02
    -20.087  0.9937E-02  0.9937E-02  0.5826E-02  0.5826E-02
    -19.969  0.3566E-02  0.3566E-02  0.6245E-02  0.6245E-02
    -19.851  0.7219E-02  0.7219E-02  0.7095E-02  0.7095E-02
    -19.733  0.1296E-01  0.1296E-01  0.8621E-02  0.8621E-02
    -19.616  0.3447E-02  0.3447E-02  0.9027E-02  0.9027E-02
    -19.498  0.8714E-02  0.8714E-02  0.1005E-01  0.1005E-01
    -19.380  0.8845E-02  0.8845E-02  0.1109E-01  0.1109E-01
    -19.263  0.5393E-02  0.5393E-02  0.1173E-01  0.1173E-01
    -19.145  0.1132E-01  0.1132E-01  0.1306E-01  0.1306E-01
    -19.027  0.7378E-02  0.7378E-02  0.1393E-01  0.1393E-01
    -18.909  0.7405E-02  0.7405E-02  0.1480E-01  0.1480E-01
    -18.792  0.7204E-02  0.7204E-02  0.1565E-01  0.1565E-01
    -18.674  0.6536E-02  0.6536E-02  0.1642E-01  0.1642E-01
    -18.556  0.1127E-01  0.1127E-01  0.1775E-01  0.1775E-01
    -18.438  0.1249E-01  0.1249E-01  0.1922E-01  0.1922E-01
    -18.321  0.1241E-01  0.1241E-01  0.2068E-01  0.2068E-01
    -18.203  0.1261E-01  0.1261E-01  0.2216E-01  0.2216E-01
    -18.085  0.1542E-01  0.1542E-01  0.2398E-01  0.2398E-01
    -17.967  0.1467E-01  0.1467E-01  0.2571E-01  0.2571E-01
    -17.850  0.1465E-01  0.1465E-01  0.2743E-01  0.2743E-01
    -17.732  0.4635E-02  0.4635E-02  0.2798E-01  0.2798E-01
    -17.614  0.2001E-03  0.2001E-03  0.2800E-01  0.2800E-01
    -17.497  0.1089E-07  0.1089E-07  0.2800E-01  0.2800E-01
    -17.379  0.1847E-07  0.1847E-07  0.2800E-01  0.2800E-01
    -17.261  0.2394E-03  0.2394E-03  0.2803E-01  0.2803E-01
    -17.143  0.2885E-02  0.2885E-02  0.2837E-01  0.2837E-01
    -17.026  0.3189E-02  0.3189E-02  0.2874E-01  0.2874E-01
    -16.908  0.8766E-03  0.8766E-03  0.2885E-01  0.2885E-01
    -16.790  0.3353E-02  0.3353E-02  0.2924E-01  0.2924E-01
    -16.672  0.2662E-03  0.2662E-03  0.2927E-01  0.2927E-01
    -16.555  0.4948E-02  0.4948E-02  0.2986E-01  0.2986E-01
    -16.437  0.5829E-02  0.5829E-02  0.3054E-01  0.3054E-01
    -16.319  0.1769E-02  0.1769E-02  0.3075E-01  0.3075E-01
    -16.201  0.1609E-02  0.1609E-02  0.3094E-01  0.3094E-01
    -16.084  0.2625E-02  0.2625E-02  0.3125E-01  0.3125E-01
    -15.966  0.2903E-03  0.2903E-03  0.3128E-01  0.3128E-01
    -15.848  0.3922E-02  0.3922E-02  0.3174E-01  0.3174E-01
    -15.731  0.2085E-02  0.2085E-02  0.3199E-01  0.3199E-01
    -15.613  0.8845E-04  0.8845E-04  0.3200E-01  0.3200E-01
    -15.495  0.4425E-09  0.4425E-09  0.3200E-01  0.3200E-01
    -15.377  0.0000E+00  0.0000E+00  0.3200E-01  0.3200E-01
    -15.260  0.0000E+00  0.0000E+00  0.3200E-01  0.3200E-01
    -15.142  0.0000E+00  0.0000E+00  0.3200E-01  0.3200E-01
    -15.024  0.0000E+00  0.0000E+00  0.3200E-01  0.3200E-01
    -14.906  0.0000E+00  0.0000E+00  0.3200E-01  0.3200E-01
    -14.789  0.0000E+00  0.0000E+00  0.3200E-01  0.3200E-01
    -14.671  0.0000E+00  0.0000E+00  0.3200E-01  0.3200E-01
    -14.553  0.0000E+00  0.0000E+00  0.3200E-01  0.3200E-01
    -14.435  0.0000E+00  0.0000E+00  0.3200E-01  0.3200E-01
    -14.318  0.0000E+00  0.0000E+00  0.3200E-01  0.3200E-01
    -14.200  0.0000E+00  0.0000E+00  0.3200E-01  0.3200E-01
    -14.082  0.0000E+00  0.0000E+00  0.3200E-01  0.3200E-01
    -13.965  0.0000E+00  0.0000E+00  0.3200E-01  0.3200E-01
    -13.847  0.0000E+00  0.0000E+00  0.3200E-01  0.3200E-01
    -13.729  0.0000E+00  0.0000E+00  0.3200E-01  0.3200E-01
    -13.611  0.0000E+00  0.0000E+00  0.3200E-01  0.3200E-01
    -13.494  0.0000E+00  0.0000E+00  0.3200E-01  0.3200E-01
    -13.376  0.0000E+00  0.0000E+00  0.3200E-01  0.3200E-01
    -13.258  0.0000E+00  0.0000E+00  0.3200E-01  0.3200E-01
    -13.140  0.0000E+00  0.0000E+00  0.3200E-01  0.3200E-01
    -13.023  0.0000E+00  0.0000E+00  0.3200E-01  0.3200E-01
    -12.905  0.0000E+00  0.0000E+00  0.3200E-01  0.3200E-01
    -12.787  0.0000E+00  0.0000E+00  0.3200E-01  0.3200E-01
    -12.669  0.0000E+00  0.0000E+00  0.3200E-01  0.3200E-01
    -12.552  0.0000E+00  0.0000E+00  0.3200E-01  0.3200E-01
    -12.434  0.0000E+00  0.0000E+00  0.3200E-01  0.3200E-01
    -12.316  0.0000E+00  0.0000E+00  0.3200E-01  0.3200E-01
    -12.199  0.0000E+00  0.0000E+00  0.3200E-01  0.3200E-01
    -12.081  0.0000E+00  0.0000E+00  0.3200E-01  0.3200E-01
    -11.963  0.0000E+00  0.0000E+00  0.3200E-01  0.3200E-01
    -11.845  0.0000E+00  0.0000E+00  0.3200E-01  0.3200E-01
    -11.728  0.0000E+00  0.0000E+00  0.3200E-01  0.3200E-01
    -11.610  0.0000E+00  0.0000E+00  0.3200E-01  0.3200E-01
    -11.492  0.0000E+00  0.0000E+00  0.3200E-01  0.3200E-01
    -11.374  0.0000E+00  0.0000E+00  0.3200E-01  0.3200E-01
    -11.257  0.0000E+00  0.0000E+00  0.3200E-01  0.3200E-01
    -11.139  0.0000E+00  0.0000E+00  0.3200E-01  0.3200E-01
    -11.021  0.1904E-13  0.1904E-13  0.3200E-01  0.3200E-01
    -10.903  0.4261E-06  0.4261E-06  0.3200E-01  0.3200E-01
    -10.786  0.8520E-03  0.8520E-03  0.3210E-01  0.3210E-01
    -10.668  0.3217E-02  0.3217E-02  0.3248E-01  0.3248E-01
    -10.550  0.2096E-02  0.2096E-02  0.3273E-01  0.3273E-01
    -10.432  0.8365E-02  0.8365E-02  0.3371E-01  0.3371E-01
    -10.315  0.3668E-02  0.3668E-02  0.3414E-01  0.3414E-01
    -10.197  0.4648E-02  0.4648E-02  0.3469E-01  0.3469E-01
    -10.079  0.2947E-02  0.2947E-02  0.3504E-01  0.3504E-01
     -9.962  0.6260E-02  0.6260E-02  0.3577E-01  0.3577E-01
     -9.844  0.5013E-02  0.5013E-02  0.3636E-01  0.3636E-01
     -9.726  0.7969E-02  0.7969E-02  0.3730E-01  0.3730E-01
     -9.608  0.4825E-02  0.4825E-02  0.3787E-01  0.3787E-01
     -9.491  0.4341E-02  0.4341E-02  0.3838E-01  0.3838E-01
     -9.373  0.4313E-02  0.4313E-02  0.3889E-01  0.3889E-01
     -9.255  0.3217E-02  0.3217E-02  0.3927E-01  0.3927E-01
     -9.137  0.7753E-02  0.7753E-02  0.4018E-01  0.4018E-01
     -9.020  0.4114E-02  0.4114E-02  0.4067E-01  0.4067E-01
     -8.902  0.5271E-02  0.5271E-02  0.4129E-01  0.4129E-01
     -8.784  0.4477E-02  0.4477E-02  0.4181E-01  0.4181E-01
     -8.666  0.4373E-02  0.4373E-02  0.4233E-01  0.4233E-01
     -8.549  0.3641E-02  0.3641E-02  0.4276E-01  0.4276E-01
     -8.431  0.4528E-02  0.4528E-02  0.4329E-01  0.4329E-01
     -8.313  0.5307E-02  0.5307E-02  0.4391E-01  0.4391E-01
     -8.196  0.3583E-02  0.3583E-02  0.4434E-01  0.4434E-01
     -8.078  0.4502E-02  0.4502E-02  0.4487E-01  0.4487E-01
     -7.960  0.2005E-02  0.2005E-02  0.4510E-01  0.4510E-01
     -7.842  0.2538E-02  0.2538E-02  0.4540E-01  0.4540E-01
     -7.725  0.2284E-02  0.2284E-02  0.4567E-01  0.4567E-01
     -7.607  0.3149E-02  0.3149E-02  0.4604E-01  0.4604E-01
     -7.489  0.4390E-02  0.4390E-02  0.4656E-01  0.4656E-01
     -7.371  0.4600E-02  0.4600E-02  0.4710E-01  0.4710E-01
     -7.254  0.8311E-02  0.8311E-02  0.4808E-01  0.4808E-01
     -7.136  0.6796E-02  0.6796E-02  0.4888E-01  0.4888E-01
     -7.018  0.8555E-02  0.8555E-02  0.4988E-01  0.4988E-01
     -6.900  0.9361E-02  0.9361E-02  0.5099E-01  0.5099E-01
     -6.783  0.1321E-01  0.1321E-01  0.5254E-01  0.5254E-01
     -6.665  0.8355E-02  0.8355E-02  0.5353E-01  0.5353E-01
     -6.547  0.7770E-02  0.7770E-02  0.5444E-01  0.5444E-01
     -6.430  0.5999E-02  0.5999E-02  0.5515E-01  0.5515E-01
     -6.312  0.7053E-02  0.7053E-02  0.5598E-01  0.5598E-01
     -6.194  0.8032E-02  0.8032E-02  0.5692E-01  0.5692E-01
     -6.076  0.9884E-02  0.9884E-02  0.5809E-01  0.5809E-01
     -5.959  0.1254E-01  0.1254E-01  0.5956E-01  0.5956E-01
     -5.841  0.1040E-01  0.1040E-01  0.6079E-01  0.6079E-01
     -5.723  0.1007E-01  0.1007E-01  0.6197E-01  0.6197E-01
     -5.605  0.1147E-01  0.1147E-01  0.6332E-01  0.6332E-01
     -5.488  0.9940E-02  0.9940E-02  0.6449E-01  0.6449E-01
     -5.370  0.1259E-01  0.1259E-01  0.6597E-01  0.6597E-01
     -5.252  0.1295E-01  0.1295E-01  0.6750E-01  0.6750E-01
     -5.134  0.9823E-02  0.9823E-02  0.6866E-01  0.6866E-01
     -5.017  0.1230E-01  0.1230E-01  0.7010E-01  0.7010E-01
     -4.899  0.1282E-01  0.1282E-01  0.7161E-01  0.7161E-01
     -4.781  0.1236E-01  0.1236E-01  0.7307E-01  0.7307E-01
     -4.664  0.9109E-02  0.9109E-02  0.7414E-01  0.7414E-01
     -4.546  0.8930E-02  0.8930E-02  0.7519E-01  0.7519E-01
     -4.428  0.8932E-02  0.8932E-02  0.7624E-01  0.7624E-01
     -4.310  0.1142E-01  0.1142E-01  0.7759E-01  0.7759E-01
     -4.193  0.1217E-01  0.1217E-01  0.7902E-01  0.7902E-01
     -4.075  0.6214E-02  0.6214E-02  0.7975E-01  0.7975E-01
     -3.957  0.1011E-01  0.1011E-01  0.8094E-01  0.8094E-01
     -3.839  0.1045E-01  0.1045E-01  0.8217E-01  0.8217E-01
     -3.722  0.1498E-01  0.1498E-01  0.8394E-01  0.8394E-01
     -3.604  0.1840E-01  0.1840E-01  0.8610E-01  0.8610E-01
     -3.486  0.9386E-02  0.9386E-02  0.8721E-01  0.8721E-01
     -3.368  0.1536E-01  0.1536E-01  0.8902E-01  0.8902E-01
     -3.251  0.1817E-01  0.1817E-01  0.9116E-01  0.9116E-01
     -3.133  0.1575E-01  0.1575E-01  0.9301E-01  0.9301E-01
     -3.015  0.1591E-01  0.1591E-01  0.9488E-01  0.9488E-01
     -2.898  0.1593E-01  0.1593E-01  0.9676E-01  0.9676E-01
     -2.780  0.1123E-01  0.1123E-01  0.9808E-01  0.9808E-01
     -2.662  0.1640E-01  0.1640E-01  0.1000E+00  0.1000E+00
     -2.544  0.1514E-01  0.1514E-01  0.1018E+00  0.1018E+00
     -2.427  0.1942E-01  0.1942E-01  0.1041E+00  0.1041E+00
     -2.309  0.1702E-01  0.1702E-01  0.1061E+00  0.1061E+00
     -2.191  0.2121E-01  0.2121E-01  0.1086E+00  0.1086E+00
     -2.073  0.1804E-01  0.1804E-01  0.1107E+00  0.1107E+00
     -1.956  0.1152E-01  0.1152E-01  0.1121E+00  0.1121E+00
     -1.838  0.1513E-01  0.1513E-01  0.1138E+00  0.1138E+00
     -1.720  0.1415E-01  0.1415E-01  0.1155E+00  0.1155E+00
     -1.602  0.1085E-01  0.1085E-01  0.1168E+00  0.1168E+00
     -1.485  0.1050E-01  0.1050E-01  0.1180E+00  0.1180E+00
     -1.367  0.1100E-01  0.1100E-01  0.1193E+00  0.1193E+00
     -1.249  0.1291E-01  0.1291E-01  0.1208E+00  0.1208E+00
     -1.132  0.6669E-02  0.6669E-02  0.1216E+00  0.1216E+00
     -1.014  0.3180E-02  0.3180E-02  0.1220E+00  0.1220E+00
     -0.896  0.7076E-02  0.7076E-02  0.1228E+00  0.1228E+00
     -0.778  0.1124E-01  0.1124E-01  0.1242E+00  0.1242E+00
     -0.661  0.1217E-01  0.1217E-01  0.1256E+00  0.1256E+00
     -0.543  0.3332E-02  0.3332E-02  0.1260E+00  0.1260E+00
     -0.425  0.8410E-03  0.8410E-03  0.1261E+00  0.1261E+00
     -0.307  0.4017E-02  0.4017E-02  0.1266E+00  0.1266E+00
     -0.190  0.9087E-02  0.9087E-02  0.1276E+00  0.1276E+00
     -0.072  0.3188E-02  0.3188E-02  0.1280E+00  0.1280E+00
      0.046  0.2197E-04  0.2197E-04  0.1280E+00  0.1280E+00
      0.164  0.6884E-05  0.6884E-05  0.1280E+00  0.1280E+00
      0.281  0.4523E-03  0.4523E-03  0.1281E+00  0.1281E+00
      0.399  0.7169E-04  0.7169E-04  0.1281E+00  0.1281E+00
      0.517  0.5015E-07  0.5015E-07  0.1281E+00  0.1281E+00
      0.634  0.2959E-03  0.2959E-03  0.1281E+00  0.1281E+00
      0.752  0.8080E-03  0.8080E-03  0.1282E+00  0.1282E+00
      0.870  0.1256E-02  0.1256E-02  0.1283E+00  0.1283E+00
      0.988  0.1836E-02  0.1836E-02  0.1286E+00  0.1286E+00
      1.105  0.1623E-02  0.1623E-02  0.1287E+00  0.1287E+00
      1.223  0.1126E-02  0.1126E-02  0.1289E+00  0.1289E+00
      1.341  0.5336E-03  0.5336E-03  0.1289E+00  0.1289E+00
      1.459  0.2307E-02  0.2307E-02  0.1292E+00  0.1292E+00
      1.576  0.2888E-02  0.2888E-02  0.1296E+00  0.1296E+00
      1.694  0.5101E-02  0.5101E-02  0.1302E+00  0.1302E+00
      1.812  0.3411E-02  0.3411E-02  0.1306E+00  0.1306E+00
      1.930  0.1109E-02  0.1109E-02  0.1307E+00  0.1307E+00
      2.047  0.3717E-03  0.3717E-03  0.1307E+00  0.1307E+00
      2.165  0.1628E-02  0.1628E-02  0.1309E+00  0.1309E+00
      2.283  0.3692E-03  0.3692E-03  0.1310E+00  0.1310E+00
      2.400  0.8126E-03  0.8126E-03  0.1311E+00  0.1311E+00
      2.518  0.1196E-03  0.1196E-03  0.1311E+00  0.1311E+00
      2.636  0.1919E-02  0.1919E-02  0.1313E+00  0.1313E+00
      2.754  0.1098E-02  0.1098E-02  0.1314E+00  0.1314E+00
      2.871  0.3721E-02  0.3721E-02  0.1319E+00  0.1319E+00
      2.989  0.1067E-02  0.1067E-02  0.1320E+00  0.1320E+00
      3.107  0.4807E-03  0.4807E-03  0.1321E+00  0.1321E+00
      3.225  0.3039E-02  0.3039E-02  0.1324E+00  0.1324E+00
      3.342  0.5003E-02  0.5003E-02  0.1330E+00  0.1330E+00
      3.460  0.4902E-02  0.4902E-02  0.1336E+00  0.1336E+00
      3.578  0.4523E-02  0.4523E-02  0.1341E+00  0.1341E+00
      3.696  0.2271E-02  0.2271E-02  0.1344E+00  0.1344E+00
      3.813  0.2010E-02  0.2010E-02  0.1346E+00  0.1346E+00
      3.931  0.6486E-02  0.6486E-02  0.1354E+00  0.1354E+00
      4.049  0.6005E-02  0.6005E-02  0.1361E+00  0.1361E+00
      4.166  0.7536E-02  0.7536E-02  0.1370E+00  0.1370E+00
      4.284  0.4621E-02  0.4621E-02  0.1375E+00  0.1375E+00
      4.402  0.7000E-02  0.7000E-02  0.1383E+00  0.1383E+00
      4.520  0.2052E-02  0.2052E-02  0.1386E+00  0.1386E+00
      4.637  0.2951E-02  0.2951E-02  0.1389E+00  0.1389E+00
      4.755  0.7603E-02  0.7603E-02  0.1398E+00  0.1398E+00
      4.873  0.7228E-02  0.7228E-02  0.1407E+00  0.1407E+00
      4.991  0.4396E-02  0.4396E-02  0.1412E+00  0.1412E+00
      5.108  0.5239E-02  0.5239E-02  0.1418E+00  0.1418E+00
      5.226  0.4548E-02  0.4548E-02  0.1423E+00  0.1423E+00
      5.344  0.3975E-02  0.3975E-02  0.1428E+00  0.1428E+00
      5.462  0.9218E-03  0.9218E-03  0.1429E+00  0.1429E+00
      5.579  0.3053E-02  0.3053E-02  0.1433E+00  0.1433E+00
      5.697  0.6681E-02  0.6681E-02  0.1441E+00  0.1441E+00
      5.815  0.3371E-02  0.3371E-02  0.1445E+00  0.1445E+00
      5.932  0.8017E-02  0.8017E-02  0.1454E+00  0.1454E+00
      6.050  0.3195E-02  0.3195E-02  0.1458E+00  0.1458E+00
      6.168  0.5036E-02  0.5036E-02  0.1464E+00  0.1464E+00
      6.286  0.6864E-02  0.6864E-02  0.1472E+00  0.1472E+00
      6.403  0.6823E-02  0.6823E-02  0.1480E+00  0.1480E+00
      6.521  0.9689E-02  0.9688E-02  0.1491E+00  0.1491E+00
      6.639  0.7429E-02  0.7429E-02  0.1500E+00  0.1500E+00
      6.757  0.3464E-02  0.3464E-02  0.1504E+00  0.1504E+00
      6.874  0.2936E-02  0.2936E-02  0.1508E+00  0.1508E+00
      6.992  0.2516E-02  0.2516E-02  0.1511E+00  0.1511E+00
      7.110  0.4649E-02  0.4649E-02  0.1516E+00  0.1516E+00
      7.228  0.5386E-02  0.5386E-02  0.1522E+00  0.1522E+00
      7.345  0.5646E-02  0.5646E-02  0.1529E+00  0.1529E+00
      7.463  0.2737E-02  0.2737E-02  0.1532E+00  0.1532E+00
      7.581  0.8524E-02  0.8524E-02  0.1542E+00  0.1542E+00
      7.698  0.5282E-02  0.5282E-02  0.1548E+00  0.1548E+00
      7.816  0.7686E-02  0.7686E-02  0.1558E+00  0.1558E+00
      7.934  0.1055E-01  0.1055E-01  0.1570E+00  0.1570E+00
      8.052  0.5770E-02  0.5770E-02  0.1577E+00  0.1577E+00
      8.169  0.6222E-02  0.6222E-02  0.1584E+00  0.1584E+00
      8.287  0.9369E-02  0.9369E-02  0.1595E+00  0.1595E+00
      8.405  0.9141E-02  0.9141E-02  0.1606E+00  0.1606E+00
      8.523  0.1144E-01  0.1144E-01  0.1619E+00  0.1619E+00
      8.640  0.1006E-01  0.1006E-01  0.1631E+00  0.1631E+00
      8.758  0.9005E-02  0.9005E-02  0.1642E+00  0.1642E+00
      8.876  0.6801E-02  0.6801E-02  0.1650E+00  0.1650E+00
      8.994  0.9379E-02  0.9379E-02  0.1661E+00  0.1661E+00
      9.111  0.1270E-01  0.1270E-01  0.1676E+00  0.1676E+00
      9.229  0.7057E-02  0.7057E-02  0.1684E+00  0.1684E+00
      9.347  0.1019E-01  0.1019E-01  0.1696E+00  0.1696E+00
      9.465  0.9991E-02  0.9991E-02  0.1708E+00  0.1708E+00
      9.582  0.6784E-02  0.6784E-02  0.1716E+00  0.1716E+00
      9.700  0.9548E-02  0.9548E-02  0.1727E+00  0.1727E+00
      9.818  0.7970E-02  0.7969E-02  0.1736E+00  0.1736E+00
      9.935  0.6133E-02  0.6132E-02  0.1744E+00  0.1744E+00
     10.053  0.1174E-01  0.1174E-01  0.1757E+00  0.1757E+00
     10.171  0.1391E-01  0.1391E-01  0.1774E+00  0.1774E+00
     10.289  0.8094E-02  0.8072E-02  0.1783E+00  0.1783E+00
     10.406  0.1023E-01  0.1025E-01  0.1795E+00  0.1795E+00
     10.524  0.2335E-02  0.2307E-02  0.1798E+00  0.1798E+00
     10.642  0.1536E-02  0.1565E-02  0.1800E+00  0.1800E+00
     10.760  0.1898E-04  0.1967E-04  0.1800E+00  0.1800E+00
     10.877  0.2668E-10  0.2718E-10  0.1800E+00  0.1800E+00
     10.995  0.0000E+00  0.0000E+00  0.1800E+00  0.1800E+00
     11.113  0.0000E+00  0.0000E+00  0.1800E+00  0.1800E+00
     11.231  0.0000E+00  0.0000E+00  0.1800E+00  0.1800E+00
     11.348  0.0000E+00  0.0000E+00  0.1800E+00  0.1800E+00
     11.466  0.0000E+00  0.0000E+00  0.1800E+00  0.1800E+00
     11.584  0.0000E+00  0.0000E+00  0.1800E+00  0.1800E+00
     11.701  0.0000E+00  0.0000E+00  0.1800E+00  0.1800E+00
     11.819  0.0000E+00  0.0000E+00  0.1800E+00  0.1800E+00
     11.937  0.0000E+00  0.0000E+00  0.1800E+00  0.1800E+00
     12.055  0.0000E+00  0.0000E+00  0.1800E+00  0.1800E+00
     12.172  0.0000E+00  0.0000E+00  0.1800E+00  0.1800E+00
