<?xml version="1.0" encoding="ISO-8859-1"?>
<modeling>
 <generator>
  <i name="program" type="string">vasp </i>
  <i name="version" type="string">5.4.1  </i>
  <i name="subversion" type="string">08Jul2015 (build Apr 24 2014 00:09:29) complex standard with constrain (TS)     parallel </i>
  <i name="platform" type="string">IBM of Center for Computational Chemistry </i>
  <i name="date" type="string">2017 12 17 </i>
  <i name="time" type="string">19:54:03 </i>
 </generator>
 <incar>
  <i type="string" name="SYSTEM"> GeO2_suf110_2x1x4_2fix</i>
  <i type="int" name="ISTART">     0</i>
  <i type="string" name="PREC">accurate       ! [low/medium/high/norma</i>
  <i type="string" name="ALGO">Fast</i>
  <i type="int" name="ISPIN">     2</i>
  <i type="int" name="NELM">   300</i>
  <i type="int" name="NELMIN">     3</i>
  <i type="int" name="IBRION">     2</i>
  <i name="EDIFFG">     -0.05000000</i>
  <i type="int" name="NSW">  1000</i>
  <i type="int" name="ISIF">     2</i>
  <i type="int" name="ISYM">     0</i>
  <i name="ENCUT">    500.00000000</i>
  <i name="POTIM">      0.10000000</i>
  <i type="string" name="LREAL"> A    ! aproximace, T zpomaluje, ale pre</i>
  <i type="int" name="ISMEAR">     0</i>
  <i name="SIGMA">      0.05000000</i>
  <i type="int" name="NWRITE">     2</i>
  <i type="logical" name="LWAVE"> F  </i>
  <i type="logical" name="LCHARG"> F  </i>
  <v type="int" name="KPOINT_BSE">    -1     0     0     0</v>
  <i type="int" name="NELM">   300</i>
 </incar>
 <kpoints>
  <generation param="Gamma">
   <v type="int" name="divisions">       4        4        1 </v>
   <v name="usershift">      0.00000000       0.00000000       0.00000000 </v>
   <v name="genvec1">      0.25000000       0.00000000       0.00000000 </v>
   <v name="genvec2">      0.00000000       0.25000000       0.00000000 </v>
   <v name="genvec3">      0.00000000       0.00000000       1.00000000 </v>
   <v name="shift">      0.00000000       0.00000000       0.00000000 </v>
  </generation>
  <varray name="kpointlist" >
   <v>       0.00000000       0.00000000       0.00000000 </v>
   <v>       0.25000000       0.00000000       0.00000000 </v>
   <v>       0.50000000       0.00000000       0.00000000 </v>
   <v>       0.00000000       0.25000000       0.00000000 </v>
   <v>       0.25000000       0.25000000       0.00000000 </v>
   <v>       0.50000000       0.25000000       0.00000000 </v>
   <v>      -0.25000000       0.25000000       0.00000000 </v>
   <v>       0.00000000       0.50000000       0.00000000 </v>
   <v>       0.25000000       0.50000000       0.00000000 </v>
   <v>       0.50000000       0.50000000       0.00000000 </v>
  </varray>
  <varray name="weights" >
   <v>       0.06250000 </v>
   <v>       0.12500000 </v>
   <v>       0.06250000 </v>
   <v>       0.12500000 </v>
   <v>       0.12500000 </v>
   <v>       0.12500000 </v>
   <v>       0.12500000 </v>
   <v>       0.06250000 </v>
   <v>       0.12500000 </v>
   <v>       0.06250000 </v>
  </varray>
 </kpoints>
 <parameters>
  <separator name="general" >
   <i type="string" name="SYSTEM">GeO2_suf110_2x1x4_2fix</i>
   <i type="logical" name="LCOMPAT"> F  </i>
  </separator>
  <separator name="electronic" >
   <i type="string" name="PREC">accura</i>
   <i name="ENMAX">    500.00000000</i>
   <i name="ENAUG">    605.39200000</i>
   <i name="EDIFF">      0.00010000</i>
   <i type="int" name="IALGO">    68</i>
   <i type="int" name="IWAVPR">    11</i>
   <i type="int" name="NBANDS">   180</i>
   <i name="NELECT">    256.00000000</i>
   <i type="int" name="TURBO">     0</i>
   <i type="int" name="IRESTART">     0</i>
   <i type="int" name="NREBOOT">     0</i>
   <i type="int" name="NMIN">     0</i>
   <i name="EREF">      0.00000000</i>
   <separator name="electronic smearing" >
    <i type="int" name="ISMEAR">     0</i>
    <i name="SIGMA">      0.05000000</i>
    <i name="KSPACING">      0.50000000</i>
    <i type="logical" name="KGAMMA"> T  </i>
   </separator>
   <separator name="electronic projectors" >
    <i type="logical" name="LREAL"> T  </i>
    <v name="ROPT">     -0.00025000     -0.00025000</v>
    <i type="int" name="LMAXPAW">  -100</i>
    <i type="int" name="LMAXMIX">     2</i>
    <i type="logical" name="NLSPLINE"> F  </i>
   </separator>
   <separator name="electronic startup" >
    <i type="int" name="ISTART">     0</i>
    <i type="int" name="ICHARG">     2</i>
    <i type="int" name="INIWAV">     1</i>
   </separator>
   <separator name="electronic spin" >
    <i type="int" name="ISPIN">     2</i>
    <i type="logical" name="LNONCOLLINEAR"> F  </i>
    <v name="MAGMOM">      1.00000000      1.00000000      1.00000000      1.00000000      1.00000000      1.00000000      1.00000000      1.00000000      1.00000000      1.00000000      1.00000000      1.00000000      1.00000000      1.00000000      1.00000000      1.00000000      1.00000000      1.00000000      1.00000000      1.00000000
      1.00000000      1.00000000      1.00000000      1.00000000      1.00000000      1.00000000      1.00000000      1.00000000      1.00000000      1.00000000      1.00000000      1.00000000      1.00000000      1.00000000      1.00000000      1.00000000      1.00000000      1.00000000      1.00000000      1.00000000
      1.00000000      1.00000000      1.00000000      1.00000000      1.00000000      1.00000000      1.00000000      1.00000000</v>
    <i name="NUPDOWN">     -1.00000000</i>
    <i type="logical" name="LSORBIT"> F  </i>
    <v name="SAXIS">      0.00000000      0.00000000      1.00000000</v>
    <i type="logical" name="LSPIRAL"> F  </i>
    <v name="QSPIRAL">      0.00000000      0.00000000      0.00000000</v>
    <i type="logical" name="LZEROZ"> F  </i>
   </separator>
   <separator name="electronic exchange-correlation" >
    <i type="logical" name="LASPH"> F  </i>
    <i type="logical" name="LMETAGGA"> F  </i>
   </separator>
   <separator name="electronic convergence" >
    <i type="int" name="NELM">   300</i>
    <i type="int" name="NELMDL">    -5</i>
    <i type="int" name="NELMIN">     3</i>
    <i name="ENINI">    500.00000000</i>
    <separator name="electronic convergence detail" >
     <i type="logical" name="LDIAG"> T  </i>
     <i type="logical" name="LSUBROT"> F  </i>
     <i name="WEIMIN">      0.00100000</i>
     <i name="EBREAK">      0.00000014</i>
     <i name="DEPER">      0.30000000</i>
     <i type="int" name="NRMM">     4</i>
     <i name="TIME">      0.40000000</i>
    </separator>
   </separator>
   <separator name="electronic mixer" >
    <i name="AMIX">      0.40000000</i>
    <i name="BMIX">      1.00000000</i>
    <i name="AMIN">      0.10000000</i>
    <i name="AMIX_MAG">      1.60000000</i>
    <i name="BMIX_MAG">      1.00000000</i>
    <separator name="electronic mixer details" >
     <i type="int" name="IMIX">     4</i>
     <i type="logical" name="MIXFIRST"> F  </i>
     <i type="int" name="MAXMIX">   -45</i>
     <i name="WC">    100.00000000</i>
     <i type="int" name="INIMIX">     1</i>
     <i type="int" name="MIXPRE">     1</i>
     <i type="int" name="MREMOVE">     5</i>
    </separator>
   </separator>
   <separator name="electronic dipolcorrection" >
    <i type="logical" name="LDIPOL"> F  </i>
    <i type="logical" name="LMONO"> F  </i>
    <i type="int" name="IDIPOL">     0</i>
    <i name="EPSILON">      1.00000000</i>
    <v name="DIPOL">   -100.00000000   -100.00000000   -100.00000000</v>
    <i name="EFIELD">      0.00000000</i>
   </separator>
  </separator>
  <separator name="grids" >
   <i type="int" name="NGX">    48</i>
   <i type="int" name="NGY">    48</i>
   <i type="int" name="NGZ">   160</i>
   <i type="int" name="NGXF">    96</i>
   <i type="int" name="NGYF">    96</i>
   <i type="int" name="NGZF">   320</i>
   <i type="logical" name="ADDGRID"> F  </i>
  </separator>
  <separator name="ionic" >
   <i type="int" name="NSW">  1000</i>
   <i type="int" name="IBRION">     2</i>
   <i type="int" name="ISIF">     2</i>
   <i name="PSTRESS">      0.00000000</i>
   <i name="EDIFFG">     -0.05000000</i>
   <i type="int" name="NFREE">     1</i>
   <i name="POTIM">      0.10000000</i>
   <i name="SMASS">     -3.00000000</i>
   <i name="SCALEE">      1.00000000</i>
  </separator>
  <separator name="ionic md" >
   <i name="TEBEG">      0.00010000</i>
   <i name="TEEND">      0.00010000</i>
   <i type="int" name="NBLOCK">     1</i>
   <i type="int" name="KBLOCK">  1000</i>
   <i type="int" name="NPACO">   256</i>
   <i name="APACO">     16.00000000</i>
  </separator>
  <separator name="symmetry" >
   <i type="int" name="ISYM">     0</i>
   <i name="SYMPREC">      0.00001000</i>
  </separator>
  <separator name="dos" >
   <i type="logical" name="LORBIT"> F  </i>
   <v name="RWIGS">     -1.00000000     -1.00000000</v>
   <i type="int" name="NEDOS">   301</i>
   <i name="EMIN">     10.00000000</i>
   <i name="EMAX">    -10.00000000</i>
   <i name="EFERMI">      0.00000000</i>
  </separator>
  <separator name="writing" >
   <i type="int" name="NWRITE">     2</i>
   <i type="logical" name="LWAVE"> F  </i>
   <i type="logical" name="LCHARG"> F  </i>
   <i type="logical" name="LPARD"> F  </i>
   <i type="logical" name="LVTOT"> F  </i>
   <i type="logical" name="LVHAR"> F  </i>
   <i type="logical" name="LELF"> F  </i>
   <i type="logical" name="LOPTICS"> F  </i>
   <v name="STM">      0.00000000      0.00000000      0.00000000      0.00000000      0.00000000      0.00000000      0.00000000</v>
  </separator>
  <separator name="performance" >
   <i type="int" name="NPAR">     4</i>
   <i type="int" name="NSIM">     4</i>
   <i type="int" name="NBLK">    -1</i>
   <i type="logical" name="LPLANE"> T  </i>
   <i type="logical" name="LSCALAPACK"> T  </i>
   <i type="logical" name="LSCAAWARE"> F  </i>
   <i type="logical" name="LSCALU"> F  </i>
   <i type="logical" name="LASYNC"> F  </i>
   <i type="logical" name="LORBITALREAL"> F  </i>
  </separator>
  <separator name="miscellaneous" >
   <i type="int" name="IDIOT">     3</i>
   <i type="logical" name="LMUSIC"> F  </i>
   <v name="POMASS">     16.00000000     72.61000000</v>
   <v name="DARWINR">      0.00000000      0.00000000</v>
   <v name="DARWINV">      1.00000000      1.00000000</v>
   <i type="logical" name="LCORR"> T  </i>
  </separator>
  <i type="logical" name="GGA_COMPAT"> T  </i>
  <i type="logical" name="LBERRY"> F  </i>
  <i type="int" name="ICORELEVEL">     0</i>
  <i type="logical" name="LDAU"> F  </i>
  <i type="int" name="I_CONSTRAINED_M">     0</i>
  <separator name="electronic exchange-correlation" >
   <i type="string" name="GGA">--</i>
   <i type="int" name="VOSKOWN">     0</i>
   <i type="logical" name="LHFCALC"> F  </i>
   <i type="string" name="PRECFOCK"></i>
   <i type="logical" name="LSYMGRAD"> F  </i>
   <i type="logical" name="LHFONE"> F  </i>
   <i type="logical" name="LRHFCALC"> F  </i>
   <i type="logical" name="LTHOMAS"> F  </i>
   <i type="logical" name="LMODELHF"> F  </i>
   <i name="ENCUT4O">     -1.00000000</i>
   <i type="int" name="EXXOEP">     0</i>
   <i type="int" name="FOURORBIT">     0</i>
   <i name="AEXX">      0.00000000</i>
   <i name="HFALPHA">      0.00000000</i>
   <i name="MCALPHA">      0.00000000</i>
   <i name="ALDAX">      1.00000000</i>
   <i name="AGGAX">      1.00000000</i>
   <i name="ALDAC">      1.00000000</i>
   <i name="AGGAC">      1.00000000</i>
   <i type="int" name="NKREDX">     1</i>
   <i type="int" name="NKREDY">     1</i>
   <i type="int" name="NKREDZ">     1</i>
   <i type="logical" name="SHIFTRED"> F  </i>
   <i type="logical" name="ODDONLY"> F  </i>
   <i type="logical" name="EVENONLY"> F  </i>
   <i type="int" name="LMAXFOCK">     0</i>
   <i type="int" name="NMAXFOCKAE">     0</i>
   <i type="logical" name="LFOCKAEDFT"> F  </i>
   <i name="HFSCREEN">      0.00000000</i>
   <i name="HFSCREENC">      0.00000000</i>
   <i type="int" name="NBANDSGWLOW">     0</i>
  </separator>
  <separator name="vdW DFT" >
   <i type="logical" name="LUSE_VDW"> F  </i>
   <i name="Zab_VDW">     -0.84910000</i>
   <i name="PARAM1">      0.12340000</i>
   <i name="PARAM2">      1.00000000</i>
   <i name="PARAM3">      0.00000000</i>
  </separator>
  <separator name="model GW" >
   <i type="int" name="MODEL_GW">     0</i>
   <i name="MODEL_EPS0">     10.12437875</i>
   <i name="MODEL_ALPHA">      1.00000000</i>
  </separator>
  <separator name="linear response parameters" >
   <i type="logical" name="LEPSILON"> F  </i>
   <i type="logical" name="LRPA"> F  </i>
   <i type="logical" name="LNABLA"> F  </i>
   <i type="logical" name="LVEL"> F  </i>
   <i type="int" name="KINTER">     0</i>
   <i name="CSHIFT">      0.10000000</i>
   <i name="OMEGAMAX">     -1.00000000</i>
   <i name="DEG_THRESHOLD">      0.00200000</i>
  </separator>
  <separator name="orbital magnetization" >
   <i type="logical" name="NUCIND"> F  </i>
   <v name="MAGPOS">      0.00000000      0.00000000      0.00000000</v>
   <i type="logical" name="LNICSALL"> T  </i>
   <i type="logical" name="ORBITALMAG"> F  </i>
   <i type="logical" name="LMAGBLOCH"> F  </i>
   <i type="logical" name="LCHIMAG"> F  </i>
   <i type="logical" name="LGAUGE"> T  </i>
   <i type="int" name="MAGATOM">     0</i>
   <v name="MAGDIPOL">      0.00000000      0.00000000      0.00000000</v>
   <v name="AVECCONST">      0.00000000      0.00000000      0.00000000</v>
  </separator>
  <separator name="response functions" >
   <i type="logical" name="LADDER"> F  </i>
   <i type="logical" name="LFXC"> F  </i>
   <i type="logical" name="LHARTREE"> T  </i>
   <i type="int" name="IBSE">     0</i>
   <v type="int" name="KPOINT">    -1     0     0     0</v>
   <i type="logical" name="LTCTE"> F  </i>
   <i type="logical" name="LTETE"> F  </i>
   <i type="logical" name="LTRIPLET"> F  </i>
   <i type="logical" name="LFXCEPS"> F  </i>
   <i type="logical" name="LFXHEG"> F  </i>
   <i type="int" name="NATURALO">     0</i>
   <i type="logical" name="L2ORDER"> F  </i>
   <i type="logical" name="LUSEW"> F  </i>
   <i name="ENCUTGW">     -2.00000000</i>
   <i name="ENCUTGWSOFT">     -2.00000000</i>
   <i name="ENCUTLF">     -1.00000000</i>
   <i type="int" name="LMAXMP2">    -1</i>
   <i name="SCISSOR">      0.00000000</i>
   <i type="int" name="NOMEGA">     0</i>
   <i type="int" name="NOMEGAR">     0</i>
   <i type="int" name="NBANDSGW">    -1</i>
   <i type="int" name="NBANDSO">    -1</i>
   <i type="int" name="NBANDSV">    -1</i>
   <i type="int" name="NELM">   300</i>
   <i type="int" name="NELMHF">     1</i>
   <i type="int" name="DIM">     3</i>
   <i type="int" name="ANTIRES">     0</i>
   <i name="OMEGAMAX">    -30.00000000</i>
   <i name="OMEGAMIN">    -30.00000000</i>
   <i name="OMEGATL">   -200.00000000</i>
   <i type="int" name="OMEGAGRID">     0</i>
   <i name="CSHIFT">     -0.10000000</i>
   <i type="logical" name="SELFENERGY"> F  </i>
   <i type="logical" name="LSPECTRAL"> F  </i>
   <i type="logical" name="LSPECTRALGW"> F  </i>
   <i type="logical" name="LSINGLES"> F  </i>
   <i type="logical" name="LFERMIGW"> F  </i>
   <i type="logical" name="ODDONLYGW"> F  </i>
   <i type="logical" name="EVENONLYGW"> F  </i>
   <i type="int" name="NKREDLFX">     1</i>
   <i type="int" name="NKREDLFY">     1</i>
   <i type="int" name="NKREDLFZ">     1</i>
   <i type="int" name="MAXMEM">  1800</i>
   <i type="int" name="TELESCOPE">     0</i>
   <i type="int" name="TAUPAR">     1</i>
   <i type="int" name="OMEGAPAR">    -1</i>
   <i name="LAMBDA">      1.00000000</i>
  </separator>
  <separator name="External order field" >
   <i name="OFIELD_KAPPA">      0.00000000</i>
   <v name="OFIELD_K">      0.00000000      0.00000000      0.00000000</v>
   <i name="OFIELD_Q6_NEAR">      0.00000000</i>
   <i name="OFIELD_Q6_FAR">      0.00000000</i>
   <i name="OFIELD_A">      0.00000000</i>
  </separator>
 </parameters>
 <atominfo>
  <atoms>      48 </atoms>
  <types>       2 </types>
  <array name="atoms" >
   <dimension dim="1">ion</dimension>
   <field type="string">element</field>
   <field type="int">atomtype</field>
   <set>
    <rc><c>O </c><c>   1</c></rc>
    <rc><c>O </c><c>   1</c></rc>
    <rc><c>O </c><c>   1</c></rc>
    <rc><c>O </c><c>   1</c></rc>
    <rc><c>O </c><c>   1</c></rc>
    <rc><c>O </c><c>   1</c></rc>
    <rc><c>O </c><c>   1</c></rc>
    <rc><c>O </c><c>   1</c></rc>
    <rc><c>O </c><c>   1</c></rc>
    <rc><c>O </c><c>   1</c></rc>
    <rc><c>O </c><c>   1</c></rc>
    <rc><c>O </c><c>   1</c></rc>
    <rc><c>O </c><c>   1</c></rc>
    <rc><c>O </c><c>   1</c></rc>
    <rc><c>O </c><c>   1</c></rc>
    <rc><c>O </c><c>   1</c></rc>
    <rc><c>O </c><c>   1</c></rc>
    <rc><c>O </c><c>   1</c></rc>
    <rc><c>O </c><c>   1</c></rc>
    <rc><c>O </c><c>   1</c></rc>
    <rc><c>O </c><c>   1</c></rc>
    <rc><c>O </c><c>   1</c></rc>
    <rc><c>O </c><c>   1</c></rc>
    <rc><c>O </c><c>   1</c></rc>
    <rc><c>O </c><c>   1</c></rc>
    <rc><c>O </c><c>   1</c></rc>
    <rc><c>O </c><c>   1</c></rc>
    <rc><c>O </c><c>   1</c></rc>
    <rc><c>O </c><c>   1</c></rc>
    <rc><c>O </c><c>   1</c></rc>
    <rc><c>O </c><c>   1</c></rc>
    <rc><c>O </c><c>   1</c></rc>
    <rc><c>Ge</c><c>   2</c></rc>
    <rc><c>Ge</c><c>   2</c></rc>
    <rc><c>Ge</c><c>   2</c></rc>
    <rc><c>Ge</c><c>   2</c></rc>
    <rc><c>Ge</c><c>   2</c></rc>
    <rc><c>Ge</c><c>   2</c></rc>
    <rc><c>Ge</c><c>   2</c></rc>
    <rc><c>Ge</c><c>   2</c></rc>
    <rc><c>Ge</c><c>   2</c></rc>
    <rc><c>Ge</c><c>   2</c></rc>
    <rc><c>Ge</c><c>   2</c></rc>
    <rc><c>Ge</c><c>   2</c></rc>
    <rc><c>Ge</c><c>   2</c></rc>
    <rc><c>Ge</c><c>   2</c></rc>
    <rc><c>Ge</c><c>   2</c></rc>
    <rc><c>Ge</c><c>   2</c></rc>
   </set>
  </array>
  <array name="atomtypes" >
   <dimension dim="1">type</dimension>
   <field type="int">atomspertype</field>
   <field type="string">element</field>
   <field>mass</field>
   <field>valence</field>
   <field type="string">pseudopotential</field>
   <set>
    <rc><c>  32</c><c>O </c><c>     16.00000000</c><c>      6.00000000</c><c>  PAW_PBE O 08Apr2002                   </c></rc>
    <rc><c>  16</c><c>Ge</c><c>     72.61000000</c><c>      4.00000000</c><c>  PAW_PBE Ge 05Jan2001                  </c></rc>
   </set>
  </array>
 </atominfo>
 <structure name="initialpos" >
  <crystal>
   <varray name="basis" >
    <v>       0.00000000       0.00000000       5.84467938 </v>
    <v>       4.46847660      -4.46847660       0.00000000 </v>
    <v>      15.50630046      15.50630046       0.00000000 </v>
   </varray>
   <i name="volume">    809.95030024 </i>
   <varray name="rec_basis" >
    <v>       0.00000000       0.00000000       0.17109578 </v>
    <v>       0.11189496      -0.11189496       0.00000000 </v>
    <v>       0.03224496       0.03224496       0.00000000 </v>
   </varray>
  </crystal>
  <varray name="positions" >
   <v>       0.13081166       0.56969810       0.00000000 </v>
   <v>       0.63081166       0.56969810       0.00000000 </v>
   <v>       0.38081166       0.26355810       0.05586496 </v>
   <v>       0.88081166       0.26355810       0.05586496 </v>
   <v>       0.38081166       0.87583810       0.05586496 </v>
   <v>       0.88081166       0.87583810       0.05586496 </v>
   <v>       0.13081166       0.56969810       0.11172992 </v>
   <v>       0.63081166       0.56969810       0.11172992 </v>
   <v>       0.13081166       0.06969810       0.14408584 </v>
   <v>       0.63081166       0.06969810       0.14408584 </v>
   <v>       0.38081166       0.37583810       0.19995080 </v>
   <v>       0.88081166       0.37583810       0.19995080 </v>
   <v>       0.38081166       0.76355810       0.19995080 </v>
   <v>       0.88081166       0.76355810       0.19995080 </v>
   <v>       0.13081166       0.06969810       0.25581576 </v>
   <v>       0.63081166       0.06969810       0.25581576 </v>
   <v>       0.13081166       0.56969810       0.28817168 </v>
   <v>       0.63081166       0.56969810       0.28817168 </v>
   <v>       0.38081166       0.26355810       0.34403664 </v>
   <v>       0.88081166       0.26355810       0.34403664 </v>
   <v>       0.38081166       0.87583810       0.34403664 </v>
   <v>       0.88081166       0.87583810       0.34403664 </v>
   <v>       0.13081166       0.56969810       0.39990160 </v>
   <v>       0.63081166       0.56969810       0.39990160 </v>
   <v>       0.13081166       0.06969810       0.43225751 </v>
   <v>       0.63081166       0.06969810       0.43225751 </v>
   <v>       0.38081166       0.37583810       0.48812248 </v>
   <v>       0.88081166       0.37583810       0.48812248 </v>
   <v>       0.38081166       0.76355810       0.48812248 </v>
   <v>       0.88081166       0.76355810       0.48812248 </v>
   <v>       0.13081166       0.06969810       0.54398744 </v>
   <v>       0.63081166       0.06969810       0.54398744 </v>
   <v>       0.13081166       0.06969810       0.05586496 </v>
   <v>       0.63081166       0.06969810       0.05586496 </v>
   <v>       0.38081166       0.56969810       0.05586496 </v>
   <v>       0.88081166       0.56969810       0.05586496 </v>
   <v>       0.38081166       0.06969810       0.19995080 </v>
   <v>       0.88081166       0.06969810       0.19995080 </v>
   <v>       0.13081166       0.56969810       0.19995080 </v>
   <v>       0.63081166       0.56969810       0.19995080 </v>
   <v>       0.13081166       0.06969810       0.34403664 </v>
   <v>       0.63081166       0.06969810       0.34403664 </v>
   <v>       0.38081166       0.56969810       0.34403664 </v>
   <v>       0.88081166       0.56969810       0.34403664 </v>
   <v>       0.38081166       0.06969810       0.48812248 </v>
   <v>       0.88081166       0.06969810       0.48812248 </v>
   <v>       0.13081166       0.56969810       0.48812248 </v>
   <v>       0.63081166       0.56969810       0.48812248 </v>
  </varray>
  <varray name="selective"  type="logical" >
   <v type="logical" >  F  F  F </v>
   <v type="logical" >  F  F  F </v>
   <v type="logical" >  F  F  F </v>
   <v type="logical" >  F  F  F </v>
   <v type="logical" >  F  F  F </v>
   <v type="logical" >  F  F  F </v>
   <v type="logical" >  F  F  F </v>
   <v type="logical" >  F  F  F </v>
   <v type="logical" >  F  F  F </v>
   <v type="logical" >  F  F  F </v>
   <v type="logical" >  F  F  F </v>
   <v type="logical" >  F  F  F </v>
   <v type="logical" >  F  F  F </v>
   <v type="logical" >  F  F  F </v>
   <v type="logical" >  F  F  F </v>
   <v type="logical" >  F  F  F </v>
   <v type="logical" >  T  T  T </v>
   <v type="logical" >  T  T  T </v>
   <v type="logical" >  T  T  T </v>
   <v type="logical" >  T  T  T </v>
   <v type="logical" >  T  T  T </v>
   <v type="logical" >  T  T  T </v>
   <v type="logical" >  T  T  T </v>
   <v type="logical" >  T  T  T </v>
   <v type="logical" >  T  T  T </v>
   <v type="logical" >  T  T  T </v>
   <v type="logical" >  T  T  T </v>
   <v type="logical" >  T  T  T </v>
   <v type="logical" >  T  T  T </v>
   <v type="logical" >  T  T  T </v>
   <v type="logical" >  T  T  T </v>
   <v type="logical" >  T  T  T </v>
   <v type="logical" >  F  F  F </v>
   <v type="logical" >  F  F  F </v>
   <v type="logical" >  F  F  F </v>
   <v type="logical" >  F  F  F </v>
   <v type="logical" >  F  F  F </v>
   <v type="logical" >  F  F  F </v>
   <v type="logical" >  F  F  F </v>
   <v type="logical" >  F  F  F </v>
   <v type="logical" >  T  T  T </v>
   <v type="logical" >  T  T  T </v>
   <v type="logical" >  T  T  T </v>
   <v type="logical" >  T  T  T </v>
   <v type="logical" >  T  T  T </v>
   <v type="logical" >  T  T  T </v>
   <v type="logical" >  T  T  T </v>
   <v type="logical" >  T  T  T </v>
  </varray>
  <nose>
   <v>      -3.00000000       0.00000000       0.00010000       0.00010000 </v>
  </nose>
 </structure>
 <calculation>
  <scstep>
   <time name="dav">   20.42   20.43</time>
   <time name="total">   20.72   20.73</time>
   <energy>
    <i name="alphaZ">    475.87937441 </i>
    <i name="ewald">  41373.92450514 </i>
    <i name="hartreedc"> -56052.20269993 </i>
    <i name="XCdc">    784.14999604 </i>
    <i name="pawpsdc">  12493.99194930 </i>
    <i name="pawaedc"> -12319.30617402 </i>
    <i name="eentropy">     -0.01342047 </i>
    <i name="bandstr">   -349.75712879 </i>
    <i name="atom">  15515.33824780 </i>
    <i name="e_fr_energy">   1922.00464948 </i>
    <i name="e_wo_entrp">   1922.01806995 </i>
    <i name="e_0_energy">   1922.01135972 </i>
   </energy>
  </scstep>
  <scstep>
   <time name="dav">   23.78   23.79</time>
   <time name="total">   23.79   23.79</time>
   <energy>
    <i name="e_fr_energy">   -112.19435135 </i>
    <i name="e_wo_entrp">   -112.19435135 </i>
    <i name="e_0_energy">   -112.19435135 </i>
   </energy>
  </scstep>
  <scstep>
   <time name="dav">   23.60   23.60</time>
   <time name="total">   23.60   23.61</time>
   <energy>
    <i name="e_fr_energy">   -325.38909200 </i>
    <i name="e_wo_entrp">   -325.38909200 </i>
    <i name="e_0_energy">   -325.38909200 </i>
   </energy>
  </scstep>
  <scstep>
   <time name="dav">   22.93   22.94</time>
   <time name="total">   22.93   22.94</time>
   <energy>
    <i name="e_fr_energy">   -329.73555777 </i>
    <i name="e_wo_entrp">   -329.73555777 </i>
    <i name="e_0_energy">   -329.73555777 </i>
   </energy>
  </scstep>
  <scstep>
   <time name="dav">   23.29   23.30</time>
   <time name="total">   23.99   24.00</time>
   <energy>
    <i name="e_fr_energy">   -329.84793885 </i>
    <i name="e_wo_entrp">   -329.84793885 </i>
    <i name="e_0_energy">   -329.84793885 </i>
   </energy>
  </scstep>
  <scstep>
   <time name="diag">    3.49    3.50</time>
   <time name="diis">   11.75   11.75</time>
   <time name="orth">    0.61    0.61</time>
   <time name="total">   16.85   16.85</time>
   <energy>
    <i name="e_fr_energy">   -203.31757324 </i>
    <i name="e_wo_entrp">   -203.31053094 </i>
    <i name="e_0_energy">   -203.31405209 </i>
   </energy>
  </scstep>
  <scstep>
   <time name="diag">    3.49    3.49</time>
   <time name="diis">   11.73   11.73</time>
   <time name="orth">    0.61    0.61</time>
   <time name="total">   16.82   16.83</time>
   <energy>
    <i name="e_fr_energy">   -209.66856692 </i>
    <i name="e_wo_entrp">   -209.66204439 </i>
    <i name="e_0_energy">   -209.66530566 </i>
   </energy>
  </scstep>
  <scstep>
   <time name="diag">    3.49    3.49</time>
   <time name="diis">   11.76   11.76</time>
   <time name="orth">    0.61    0.61</time>
   <time name="total">   16.85   16.86</time>
   <energy>
    <i name="e_fr_energy">   -220.52343693 </i>
    <i name="e_wo_entrp">   -220.51667953 </i>
    <i name="e_0_energy">   -220.52005823 </i>
   </energy>
  </scstep>
  <scstep>
   <time name="diag">    3.49    3.49</time>
   <time name="diis">   11.77   11.77</time>
   <time name="orth">    0.61    0.61</time>
   <time name="total">   16.86   16.87</time>
   <energy>
    <i name="e_fr_energy">   -255.38345432 </i>
    <i name="e_wo_entrp">   -255.38056906 </i>
    <i name="e_0_energy">   -255.38201169 </i>
   </energy>
  </scstep>
  <scstep>
   <time name="diag">    3.49    3.49</time>
   <time name="diis">   11.78   11.78</time>
   <time name="orth">    0.61    0.61</time>
   <time name="total">   16.87   16.88</time>
   <energy>
    <i name="e_fr_energy">   -277.82744052 </i>
    <i name="e_wo_entrp">   -277.82354182 </i>
    <i name="e_0_energy">   -277.82549117 </i>
   </energy>
  </scstep>
  <scstep>
   <time name="diag">    3.54    3.55</time>
   <time name="diis">   11.75   11.76</time>
   <time name="orth">    0.61    0.61</time>
   <time name="total">   16.90   16.91</time>
   <energy>
    <i name="e_fr_energy">   -298.54670424 </i>
    <i name="e_wo_entrp">   -298.54370331 </i>
    <i name="e_0_energy">   -298.54520378 </i>
   </energy>
  </scstep>
  <scstep>
   <time name="diag">    3.53    3.53</time>
   <time name="diis">   11.73   11.73</time>
   <time name="orth">    0.61    0.61</time>
   <time name="total">   16.86   16.87</time>
   <energy>
    <i name="e_fr_energy">   -299.26675958 </i>
    <i name="e_wo_entrp">   -299.26675521 </i>
    <i name="e_0_energy">   -299.26675740 </i>
   </energy>
  </scstep>
  <scstep>
   <time name="diag">    3.54    3.54</time>
   <time name="diis">   11.76   11.76</time>
   <time name="orth">    0.61    0.61</time>
   <time name="total">   16.90   16.91</time>
   <energy>
    <i name="e_fr_energy">   -299.44233208 </i>
    <i name="e_wo_entrp">   -299.44233134 </i>
    <i name="e_0_energy">   -299.44233171 </i>
   </energy>
  </scstep>
  <scstep>
   <time name="diag">    3.54    3.54</time>
   <time name="diis">   11.75   11.75</time>
   <time name="orth">    0.61    0.61</time>
   <time name="total">   16.89   16.90</time>
   <energy>
    <i name="e_fr_energy">   -299.55306515 </i>
    <i name="e_wo_entrp">   -299.55306505 </i>
    <i name="e_0_energy">   -299.55306510 </i>
   </energy>
  </scstep>
  <scstep>
   <time name="diag">    3.54    3.54</time>
   <time name="diis">   11.79   11.79</time>
   <time name="orth">    0.61    0.61</time>
   <time name="total">   16.93   16.94</time>
   <energy>
    <i name="e_fr_energy">   -299.62350873 </i>
    <i name="e_wo_entrp">   -299.62350857 </i>
    <i name="e_0_energy">   -299.62350865 </i>
   </energy>
  </scstep>
  <scstep>
   <time name="diag">    3.53    3.53</time>
   <time name="diis">   11.79   11.79</time>
   <time name="orth">    0.61    0.61</time>
   <time name="total">   16.92   16.92</time>
   <energy>
    <i name="e_fr_energy">   -299.65678357 </i>
    <i name="e_wo_entrp">   -299.65678337 </i>
    <i name="e_0_energy">   -299.65678347 </i>
   </energy>
  </scstep>
  <scstep>
   <time name="diag">    3.53    3.53</time>
   <time name="diis">   11.49   11.49</time>
   <time name="orth">    0.61    0.61</time>
   <time name="total">   16.63   16.63</time>
   <energy>
    <i name="e_fr_energy">   -299.67691242 </i>
    <i name="e_wo_entrp">   -299.67691228 </i>
    <i name="e_0_energy">   -299.67691235 </i>
   </energy>
  </scstep>
  <scstep>
   <time name="diag">    3.54    3.54</time>
   <time name="diis">    9.42    9.43</time>
   <time name="orth">    0.61    0.61</time>
   <time name="total">   14.56   14.57</time>
   <energy>
    <i name="e_fr_energy">   -299.68583968 </i>
    <i name="e_wo_entrp">   -299.68583952 </i>
    <i name="e_0_energy">   -299.68583960 </i>
   </energy>
  </scstep>
  <scstep>
   <time name="diag">    3.53    3.53</time>
   <time name="diis">    9.31    9.31</time>
   <time name="orth">    0.61    0.61</time>
   <time name="total">   14.44   14.44</time>
   <energy>
    <i name="e_fr_energy">   -299.69668479 </i>
    <i name="e_wo_entrp">   -299.69668462 </i>
    <i name="e_0_energy">   -299.69668471 </i>
   </energy>
  </scstep>
  <scstep>
   <time name="diag">    3.53    3.53</time>
   <time name="diis">    8.44    8.45</time>
   <time name="orth">    0.61    0.61</time>
   <time name="total">   13.58   13.59</time>
   <energy>
    <i name="e_fr_energy">   -299.70188308 </i>
    <i name="e_wo_entrp">   -299.70188292 </i>
    <i name="e_0_energy">   -299.70188300 </i>
   </energy>
  </scstep>
  <scstep>
   <time name="diag">    3.50    3.50</time>
   <time name="diis">    8.33    8.33</time>
   <time name="orth">    0.61    0.61</time>
   <time name="total">   13.44   13.44</time>
   <energy>
    <i name="e_fr_energy">   -299.70534485 </i>
    <i name="e_wo_entrp">   -299.70534467 </i>
    <i name="e_0_energy">   -299.70534476 </i>
   </energy>
  </scstep>
  <scstep>
   <time name="diag">    3.49    3.49</time>
   <time name="diis">    7.44    7.44</time>
   <time name="orth">    0.61    0.61</time>
   <time name="total">   12.54   12.55</time>
   <energy>
    <i name="e_fr_energy">   -299.70568475 </i>
    <i name="e_wo_entrp">   -299.70568458 </i>
    <i name="e_0_energy">   -299.70568466 </i>
   </energy>
  </scstep>
  <scstep>
   <time name="diag">    3.49    3.49</time>
   <time name="diis">    7.14    7.14</time>
   <time name="orth">    0.61    0.61</time>
   <time name="total">   12.24   12.24</time>
   <energy>
    <i name="e_fr_energy">   -299.70588305 </i>
    <i name="e_wo_entrp">   -299.70588289 </i>
    <i name="e_0_energy">   -299.70588297 </i>
   </energy>
  </scstep>
  <scstep>
   <time name="diag">    3.50    3.50</time>
   <time name="diis">    6.73    6.74</time>
   <time name="orth">    0.61    0.61</time>
   <time name="total">   11.13   11.13</time>
   <energy>
    <i name="alphaZ">    475.87937441 </i>
    <i name="ewald">  41373.92450514 </i>
    <i name="hartreedc"> -56580.04575258 </i>
    <i name="XCdc">    816.37609220 </i>
    <i name="pawpsdc">  20070.67698345 </i>
    <i name="pawaedc"> -19909.55957189 </i>
    <i name="eentropy">     -0.00000017 </i>
    <i name="bandstr">  -2062.29582006 </i>
    <i name="atom">  15515.33824780 </i>
    <i name="e_fr_energy">   -299.70594171 </i>
    <i name="e_wo_entrp">   -299.70594154 </i>
    <i name="e_0_energy">   -299.70594163 </i>
   </energy>
  </scstep>
  <structure>
   <crystal>
    <varray name="basis" >
     <v>       0.00000000       0.00000000       5.84467938 </v>
     <v>       4.46847660      -4.46847660       0.00000000 </v>
     <v>      15.50630046      15.50630046       0.00000000 </v>
    </varray>
    <i name="volume">    809.95030024 </i>
    <varray name="rec_basis" >
     <v>       0.00000000       0.00000000       0.17109578 </v>
     <v>       0.11189496      -0.11189496       0.00000000 </v>
     <v>       0.03224496       0.03224496       0.00000000 </v>
    </varray>
   </crystal>
   <varray name="positions" >
    <v>       0.13081166       0.56969810       0.00000000 </v>
    <v>       0.63081166       0.56969810       0.00000000 </v>
    <v>       0.38081166       0.26355810       0.05586496 </v>
    <v>       0.88081166       0.26355810       0.05586496 </v>
    <v>       0.38081166       0.87583810       0.05586496 </v>
    <v>       0.88081166       0.87583810       0.05586496 </v>
    <v>       0.13081166       0.56969810       0.11172992 </v>
    <v>       0.63081166       0.56969810       0.11172992 </v>
    <v>       0.13081166       0.06969810       0.14408584 </v>
    <v>       0.63081166       0.06969810       0.14408584 </v>
    <v>       0.38081166       0.37583810       0.19995080 </v>
    <v>       0.88081166       0.37583810       0.19995080 </v>
    <v>       0.38081166       0.76355810       0.19995080 </v>
    <v>       0.88081166       0.76355810       0.19995080 </v>
    <v>       0.13081166       0.06969810       0.25581576 </v>
    <v>       0.63081166       0.06969810       0.25581576 </v>
    <v>       0.13081166       0.56969810       0.28817168 </v>
    <v>       0.63081166       0.56969810       0.28817168 </v>
    <v>       0.38081166       0.26355810       0.34403664 </v>
    <v>       0.88081166       0.26355810       0.34403664 </v>
    <v>       0.38081166       0.87583810       0.34403664 </v>
    <v>       0.88081166       0.87583810       0.34403664 </v>
    <v>       0.13081166       0.56969810       0.39990160 </v>
    <v>       0.63081166       0.56969810       0.39990160 </v>
    <v>       0.13081166       0.06969810       0.43225751 </v>
    <v>       0.63081166       0.06969810       0.43225751 </v>
    <v>       0.38081166       0.37583810       0.48812248 </v>
    <v>       0.88081166       0.37583810       0.48812248 </v>
    <v>       0.38081166       0.76355810       0.48812248 </v>
    <v>       0.88081166       0.76355810       0.48812248 </v>
    <v>       0.13081166       0.06969810       0.54398744 </v>
    <v>       0.63081166       0.06969810       0.54398744 </v>
    <v>       0.13081166       0.06969810       0.05586496 </v>
    <v>       0.63081166       0.06969810       0.05586496 </v>
    <v>       0.38081166       0.56969810       0.05586496 </v>
    <v>       0.88081166       0.56969810       0.05586496 </v>
    <v>       0.38081166       0.06969810       0.19995080 </v>
    <v>       0.88081166       0.06969810       0.19995080 </v>
    <v>       0.13081166       0.56969810       0.19995080 </v>
    <v>       0.63081166       0.56969810       0.19995080 </v>
    <v>       0.13081166       0.06969810       0.34403664 </v>
    <v>       0.63081166       0.06969810       0.34403664 </v>
    <v>       0.38081166       0.56969810       0.34403664 </v>
    <v>       0.88081166       0.56969810       0.34403664 </v>
    <v>       0.38081166       0.06969810       0.48812248 </v>
    <v>       0.88081166       0.06969810       0.48812248 </v>
    <v>       0.13081166       0.56969810       0.48812248 </v>
    <v>       0.63081166       0.56969810       0.48812248 </v>
   </varray>
  </structure>
  <varray name="forces" >
   <v>       0.80665602       0.80512947       0.00096650 </v>
   <v>       0.80653599       0.80501314       0.00096790 </v>
   <v>      -1.85475361       0.42723018      -0.00058394 </v>
   <v>      -1.85475740       0.42723304      -0.00061318 </v>
   <v>       0.42876945      -1.85245553      -0.00005395 </v>
   <v>       0.42876491      -1.85245170      -0.00007493 </v>
   <v>       1.07438613       1.07191774      -0.00298544 </v>
   <v>       1.07446712       1.07200204      -0.00297986 </v>
   <v>      -0.33760362      -0.34097192       0.00027907 </v>
   <v>      -0.33762137      -0.34098884       0.00027696 </v>
   <v>      -0.12642625       0.18121640       0.00076918 </v>
   <v>      -0.12642862       0.18122057       0.00077647 </v>
   <v>       0.18142168      -0.12640208      -0.00004739 </v>
   <v>       0.18142264      -0.12640297      -0.00004309 </v>
   <v>      -0.05320863      -0.05753189      -0.00039843 </v>
   <v>      -0.05320071      -0.05752647      -0.00039460 </v>
   <v>       0.05724653       0.05463355      -0.00200541 </v>
   <v>       0.05724959       0.05463671      -0.00200399 </v>
   <v>       0.12602253      -0.18100840      -0.00001118 </v>
   <v>       0.12602375      -0.18100717      -0.00005388 </v>
   <v>      -0.18294617       0.12471014       0.00101090 </v>
   <v>      -0.18295336       0.12471363       0.00097038 </v>
   <v>       0.33969247       0.33886376       0.00028810 </v>
   <v>       0.33966498       0.33883512       0.00028448 </v>
   <v>      -1.07247919      -1.07606722      -0.00138961 </v>
   <v>      -1.07226398      -1.07584905      -0.00138882 </v>
   <v>       1.85260881      -0.42803382       0.00020815 </v>
   <v>       1.85260565      -0.42802791       0.00015539 </v>
   <v>      -0.42681556       1.85399732      -0.00198743 </v>
   <v>      -0.42681008       1.85399505      -0.00204763 </v>
   <v>      -0.80414995      -0.80654742       0.00091825 </v>
   <v>      -0.80428403      -0.80668056       0.00091613 </v>
   <v>       1.96515933       1.96726089       0.00025624 </v>
   <v>       1.96515606       1.96725563       0.00025689 </v>
   <v>      -2.24333569      -2.24004158       0.00055180 </v>
   <v>      -2.24333183      -2.24004125       0.00052765 </v>
   <v>       0.26371912       0.26715207       0.00131895 </v>
   <v>       0.26372074       0.26715172       0.00134197 </v>
   <v>      -0.17152217      -0.17005062       0.00075348 </v>
   <v>      -0.17154414      -0.17007252       0.00075221 </v>
   <v>       0.16988100       0.17204704       0.00020550 </v>
   <v>       0.16982249       0.17198979       0.00020429 </v>
   <v>      -0.26667654      -0.26336611       0.00043449 </v>
   <v>      -0.26667633      -0.26336888       0.00038470 </v>
   <v>       2.24087354       2.24342585       0.00076770 </v>
   <v>       2.24087122       2.24342287       0.00084297 </v>
   <v>      -1.96647701      -1.96508225       0.00083901 </v>
   <v>      -1.96647549      -1.96507753       0.00083706 </v>
  </varray>
  <varray name="stress" >
   <v>      15.62530489     -15.28926949      -0.01080032 </v>
   <v>     -15.28926947      15.61707541      -0.00848214 </v>
   <v>      -0.01080025      -0.00848208     -27.31277345 </v>
  </varray>
  <energy>
   <i name="e_fr_energy">   -307.86384129 </i>
   <i name="e_wo_entrp">   -307.86384121 </i>
   <i name="e_0_energy">     -0.00000017 </i>
  </energy>
  <time name="totalsc">  432.36  432.55</time>
 </calculation>
 <calculation>
  <scstep>
   <time name="dav">   21.28   21.29</time>
   <time name="total">   22.28   22.29</time>
   <energy>
    <i name="alphaZ">    475.87937441 </i>
    <i name="ewald">  41375.07825584 </i>
    <i name="hartreedc"> -56579.02035105 </i>
    <i name="XCdc">    816.47167443 </i>
    <i name="pawpsdc">  20070.72547338 </i>
    <i name="pawaedc"> -19909.60795241 </i>
    <i name="eentropy">     -0.00000002 </i>
    <i name="bandstr">  -2065.03177592 </i>
    <i name="atom">  15515.33824780 </i>
    <i name="e_fr_energy">   -300.16705356 </i>
    <i name="e_wo_entrp">   -300.16705354 </i>
    <i name="e_0_energy">   -300.16705355 </i>
   </energy>
  </scstep>
  <scstep>
   <time name="diag">    3.55    3.56</time>
   <time name="diis">   11.55   11.56</time>
   <time name="orth">    0.61    0.61</time>
   <time name="total">   16.71   16.72</time>
   <energy>
    <i name="e_fr_energy">   -300.19422750 </i>
    <i name="e_wo_entrp">   -300.19422748 </i>
    <i name="e_0_energy">   -300.19422749 </i>
   </energy>
  </scstep>
  <scstep>
   <time name="diag">    3.56    3.57</time>
   <time name="diis">   11.34   11.35</time>
   <time name="orth">    0.61    0.61</time>
   <time name="total">   16.51   16.52</time>
   <energy>
    <i name="e_fr_energy">   -300.19096192 </i>
    <i name="e_wo_entrp">   -300.19096191 </i>
    <i name="e_0_energy">   -300.19096191 </i>
   </energy>
  </scstep>
  <scstep>
   <time name="diag">    3.56    3.56</time>
   <time name="diis">   11.33   11.33</time>
   <time name="orth">    0.61    0.61</time>
   <time name="total">   16.49   16.49</time>
   <energy>
    <i name="e_fr_energy">   -300.18950532 </i>
    <i name="e_wo_entrp">   -300.18950531 </i>
    <i name="e_0_energy">   -300.18950531 </i>
   </energy>
  </scstep>
  <scstep>
   <time name="diag">    3.55    3.55</time>
   <time name="diis">    8.96    8.97</time>
   <time name="orth">    0.61    0.61</time>
   <time name="total">   13.42   13.42</time>
   <energy>
    <i name="alphaZ">    475.87937441 </i>
    <i name="ewald">  41375.07825584 </i>
    <i name="hartreedc"> -56583.31523104 </i>
    <i name="XCdc">    816.58309029 </i>
    <i name="pawpsdc">  20101.86394707 </i>
    <i name="pawaedc"> -19940.83076656 </i>
    <i name="eentropy">     -0.00000001 </i>
    <i name="bandstr">  -2060.78636913 </i>
    <i name="atom">  15515.33824780 </i>
    <i name="e_fr_energy">   -300.18945135 </i>
    <i name="e_wo_entrp">   -300.18945134 </i>
    <i name="e_0_energy">   -300.18945134 </i>
   </energy>
  </scstep>
  <structure>
   <crystal>
    <varray name="basis" >
     <v>       0.00000000       0.00000000       5.84467938 </v>
     <v>       4.46847660      -4.46847660       0.00000000 </v>
     <v>      15.50630046      15.50630046       0.00000000 </v>
    </varray>
    <i name="volume">    809.95030024 </i>
    <varray name="rec_basis" >
     <v>       0.00000000       0.00000000       0.17109578 </v>
     <v>       0.11189496      -0.11189496       0.00000000 </v>
     <v>       0.03224496       0.03224496       0.00000000 </v>
    </varray>
   </crystal>
   <varray name="positions" >
    <v>       0.13081166       0.56969810       0.00000000 </v>
    <v>       0.63081166       0.56969810       0.00000000 </v>
    <v>       0.38081166       0.26355810       0.05586496 </v>
    <v>       0.88081166       0.26355810       0.05586496 </v>
    <v>       0.38081166       0.87583810       0.05586496 </v>
    <v>       0.88081166       0.87583810       0.05586496 </v>
    <v>       0.13081166       0.56969810       0.11172992 </v>
    <v>       0.63081166       0.56969810       0.11172992 </v>
    <v>       0.13081166       0.06969810       0.14408584 </v>
    <v>       0.63081166       0.06969810       0.14408584 </v>
    <v>       0.38081166       0.37583810       0.19995080 </v>
    <v>       0.88081166       0.37583810       0.19995080 </v>
    <v>       0.38081166       0.76355810       0.19995080 </v>
    <v>       0.88081166       0.76355810       0.19995080 </v>
    <v>       0.13081166       0.06969810       0.25581576 </v>
    <v>       0.63081166       0.06969810       0.25581576 </v>
    <v>       0.13080835       0.56970092       0.28820648 </v>
    <v>       0.63080835       0.56970092       0.28820649 </v>
    <v>       0.38081164       0.26388957       0.34401953 </v>
    <v>       0.88081157       0.26388957       0.34401953 </v>
    <v>       0.38081333       0.87550594       0.34401852 </v>
    <v>       0.88081326       0.87550593       0.34401852 </v>
    <v>       0.13081214       0.56969899       0.40011271 </v>
    <v>       0.63081213       0.56969899       0.40011269 </v>
    <v>       0.13080937       0.06970197       0.43158907 </v>
    <v>       0.63080937       0.06970197       0.43158920 </v>
    <v>       0.38081201       0.37830033       0.48856568 </v>
    <v>       0.88081192       0.37830032       0.48856569 </v>
    <v>       0.38080838       0.76109568       0.48856650 </v>
    <v>       0.88080828       0.76109569       0.48856650 </v>
    <v>       0.13081318       0.06970068       0.54348632 </v>
    <v>       0.63081317       0.06970068       0.54348624 </v>
    <v>       0.13081166       0.06969810       0.05586496 </v>
    <v>       0.63081166       0.06969810       0.05586496 </v>
    <v>       0.38081166       0.56969810       0.05586496 </v>
    <v>       0.88081166       0.56969810       0.05586496 </v>
    <v>       0.38081166       0.06969810       0.19995080 </v>
    <v>       0.88081166       0.06969810       0.19995080 </v>
    <v>       0.13081166       0.56969810       0.19995080 </v>
    <v>       0.63081166       0.56969810       0.19995080 </v>
    <v>       0.13081200       0.06969576       0.34414302 </v>
    <v>       0.63081200       0.06969576       0.34414298 </v>
    <v>       0.38081238       0.56969452       0.34387173 </v>
    <v>       0.88081230       0.56969452       0.34387173 </v>
    <v>       0.38081293       0.06969534       0.48951762 </v>
    <v>       0.88081305       0.06969534       0.48951761 </v>
    <v>       0.13081305       0.56969659       0.48689930 </v>
    <v>       0.63081304       0.56969659       0.48689931 </v>
   </varray>
  </structure>
  <varray name="forces" >
   <v>       0.80447320       0.80313000       0.00091199 </v>
   <v>       0.80445792       0.80312069       0.00090981 </v>
   <v>      -1.85684222       0.42435855      -0.00065969 </v>
   <v>      -1.85684419       0.42436014      -0.00065998 </v>
   <v>       0.42569508      -1.85434528      -0.00012539 </v>
   <v>       0.42569212      -1.85434281      -0.00012862 </v>
   <v>       1.07073821       1.06847927      -0.00304494 </v>
   <v>       1.07074592       1.06848223      -0.00304397 </v>
   <v>      -0.34618267      -0.34935500       0.00021304 </v>
   <v>      -0.34618734      -0.34935761       0.00020981 </v>
   <v>      -0.11480744       0.17183348       0.00068361 </v>
   <v>      -0.11481088       0.17183423       0.00068511 </v>
   <v>       0.17180097      -0.11460994      -0.00013373 </v>
   <v>       0.17180576      -0.11461075      -0.00013346 </v>
   <v>      -0.05777100      -0.06193590      -0.00044160 </v>
   <v>      -0.05777273      -0.06193876      -0.00044505 </v>
   <v>       0.05361758       0.05146868      -0.00169047 </v>
   <v>       0.05360381       0.05145551      -0.00169024 </v>
   <v>       0.11059217      -0.23159785       0.00004304 </v>
   <v>       0.11061172      -0.23162566       0.00005358 </v>
   <v>      -0.23395337       0.11113042       0.00037251 </v>
   <v>      -0.23394412       0.11112202       0.00037194 </v>
   <v>       0.12489201       0.12427203       0.00091055 </v>
   <v>       0.12490722       0.12427340       0.00089860 </v>
   <v>      -0.56279720      -0.56616609       0.00042565 </v>
   <v>      -0.56287460      -0.56625674       0.00045676 </v>
   <v>       1.41202970      -0.06672937       0.00074881 </v>
   <v>       1.41199781      -0.06671070       0.00076905 </v>
   <v>      -0.06499923       1.40936517      -0.00270321 </v>
   <v>      -0.06499592       1.40937136      -0.00267856 </v>
   <v>      -0.48413793      -0.48682122       0.00061128 </v>
   <v>      -0.48411163      -0.48678334       0.00062183 </v>
   <v>       1.97069020       1.97299696       0.00019550 </v>
   <v>       1.97069069       1.97299720       0.00019559 </v>
   <v>      -2.23971121      -2.23621911       0.00047322 </v>
   <v>      -2.23971042      -2.23621923       0.00048098 </v>
   <v>       0.28537060       0.28904403       0.00126311 </v>
   <v>       0.28536985       0.28904380       0.00126828 </v>
   <v>      -0.18209387      -0.18047571       0.00067151 </v>
   <v>      -0.18209476      -0.18047685       0.00066920 </v>
   <v>       0.19577158       0.19764861       0.00058745 </v>
   <v>       0.19580940       0.19768842       0.00058857 </v>
   <v>      -0.25098058      -0.24793371       0.00067074 </v>
   <v>      -0.25098909      -0.24793251       0.00069102 </v>
   <v>       1.44835858       1.45059163      -0.00046130 </v>
   <v>       1.44836814       1.45058378      -0.00049227 </v>
   <v>      -1.67974057      -1.67810348       0.00044031 </v>
   <v>      -1.67973724      -1.67810396       0.00044001 </v>
  </varray>
  <varray name="stress" >
   <v>      16.40169451     -13.88238167      -0.00914226 </v>
   <v>     -13.88238170      16.38768791       0.00292054 </v>
   <v>      -0.00914229       0.00292059     -27.69373033 </v>
  </varray>
  <energy>
   <i name="e_fr_energy">   -308.34608426 </i>
   <i name="e_wo_entrp">   -308.34608426 </i>
   <i name="e_0_energy">     -0.00000001 </i>
  </energy>
  <time name="totalsc">  108.52  108.58</time>
 </calculation>
 <calculation>
  <scstep>
   <time name="dav">   20.55   20.56</time>
   <time name="total">   21.54   21.55</time>
   <energy>
    <i name="alphaZ">    475.87937441 </i>
    <i name="ewald">  41378.83836981 </i>
    <i name="hartreedc"> -56580.16511864 </i>
    <i name="XCdc">    816.80639722 </i>
    <i name="pawpsdc">  20102.18891918 </i>
    <i name="pawaedc"> -19941.15754247 </i>
    <i name="eentropy">     -0.00000000 </i>
    <i name="bandstr">  -2068.26565733 </i>
    <i name="atom">  15515.33824780 </i>
    <i name="e_fr_energy">   -300.53701004 </i>
    <i name="e_wo_entrp">   -300.53701004 </i>
    <i name="e_0_energy">   -300.53701004 </i>
   </energy>
  </scstep>
  <scstep>
   <time name="diag">    3.52    3.52</time>
   <time name="diis">   11.79   11.80</time>
   <time name="orth">    0.61    0.61</time>
   <time name="total">   16.91   16.91</time>
   <energy>
    <i name="e_fr_energy">   -300.68752327 </i>
    <i name="e_wo_entrp">   -300.68752326 </i>
    <i name="e_0_energy">   -300.68752326 </i>
   </energy>
  </scstep>
  <scstep>
   <time name="diag">    3.51    3.51</time>
   <time name="diis">   11.79   11.80</time>
   <time name="orth">    0.61    0.61</time>
   <time name="total">   16.90   16.91</time>
   <energy>
    <i name="e_fr_energy">   -300.66364200 </i>
    <i name="e_wo_entrp">   -300.66364200 </i>
    <i name="e_0_energy">   -300.66364200 </i>
   </energy>
  </scstep>
  <scstep>
   <time name="diag">    3.51    3.51</time>
   <time name="diis">   11.76   11.76</time>
   <time name="orth">    0.61    0.61</time>
   <time name="total">   16.86   16.87</time>
   <energy>
    <i name="e_fr_energy">   -300.65231462 </i>
    <i name="e_wo_entrp">   -300.65231462 </i>
    <i name="e_0_energy">   -300.65231462 </i>
   </energy>
  </scstep>
  <scstep>
   <time name="diag">    3.51    3.51</time>
   <time name="diis">   11.19   11.20</time>
   <time name="orth">    0.61    0.61</time>
   <time name="total">   16.30   16.31</time>
   <energy>
    <i name="e_fr_energy">   -300.65204125 </i>
    <i name="e_wo_entrp">   -300.65204125 </i>
    <i name="e_0_energy">   -300.65204125 </i>
   </energy>
  </scstep>
  <scstep>
   <time name="diag">    3.52    3.52</time>
   <time name="diis">    9.32    9.32</time>
   <time name="orth">    0.61    0.61</time>
   <time name="total">   13.74   13.74</time>
   <energy>
    <i name="alphaZ">    475.87937441 </i>
    <i name="ewald">  41378.83836981 </i>
    <i name="hartreedc"> -56594.73710784 </i>
    <i name="XCdc">    817.11620200 </i>
    <i name="pawpsdc">  20222.24347969 </i>
    <i name="pawaedc"> -20061.50022529 </i>
    <i name="eentropy">     -0.00000000 </i>
    <i name="bandstr">  -2053.83046389 </i>
    <i name="atom">  15515.33824780 </i>
    <i name="e_fr_energy">   -300.65212331 </i>
    <i name="e_wo_entrp">   -300.65212331 </i>
    <i name="e_0_energy">   -300.65212331 </i>
   </energy>
  </scstep>
  <structure>
   <crystal>
    <varray name="basis" >
     <v>       0.00000000       0.00000000       5.84467938 </v>
     <v>       4.46847660      -4.46847660       0.00000000 </v>
     <v>      15.50630046      15.50630046       0.00000000 </v>
    </varray>
    <i name="volume">    809.95030024 </i>
    <varray name="rec_basis" >
     <v>       0.00000000       0.00000000       0.17109578 </v>
     <v>       0.11189496      -0.11189496       0.00000000 </v>
     <v>       0.03224496       0.03224496       0.00000000 </v>
    </varray>
   </crystal>
   <varray name="positions" >
    <v>       0.13081166       0.56969810       0.00000000 </v>
    <v>       0.63081166       0.56969810       0.00000000 </v>
    <v>       0.38081166       0.26355810       0.05586496 </v>
    <v>       0.88081166       0.26355810       0.05586496 </v>
    <v>       0.38081166       0.87583810       0.05586496 </v>
    <v>       0.88081166       0.87583810       0.05586496 </v>
    <v>       0.13081166       0.56969810       0.11172992 </v>
    <v>       0.63081166       0.56969810       0.11172992 </v>
    <v>       0.13081166       0.06969810       0.14408584 </v>
    <v>       0.63081166       0.06969810       0.14408584 </v>
    <v>       0.38081166       0.37583810       0.19995080 </v>
    <v>       0.88081166       0.37583810       0.19995080 </v>
    <v>       0.38081166       0.76355810       0.19995080 </v>
    <v>       0.88081166       0.76355810       0.19995080 </v>
    <v>       0.13081166       0.06969810       0.25581576 </v>
    <v>       0.63081166       0.06969810       0.25581576 </v>
    <v>       0.13080013       0.56970792       0.28829288 </v>
    <v>       0.63080014       0.56970792       0.28829289 </v>
    <v>       0.38081160       0.26471236       0.34397707 </v>
    <v>       0.88081135       0.26471236       0.34397707 </v>
    <v>       0.38081747       0.87468148       0.34397355 </v>
    <v>       0.88081724       0.87468144       0.34397354 </v>
    <v>       0.13081332       0.56970121       0.40063672 </v>
    <v>       0.63081330       0.56970122       0.40063666 </v>
    <v>       0.13080367       0.06971158       0.42992986 </v>
    <v>       0.63080368       0.06971157       0.42993033 </v>
    <v>       0.38081286       0.38441201       0.48966580 </v>
    <v>       0.88081255       0.38441197       0.48966581 </v>
    <v>       0.38080024       0.75498354       0.48966863 </v>
    <v>       0.88079989       0.75498357       0.48966863 </v>
    <v>       0.13081694       0.06970711       0.54224247 </v>
    <v>       0.63081693       0.06970710       0.54224218 </v>
    <v>       0.13081166       0.06969810       0.05586496 </v>
    <v>       0.63081166       0.06969810       0.05586496 </v>
    <v>       0.38081166       0.56969810       0.05586496 </v>
    <v>       0.88081166       0.56969810       0.05586496 </v>
    <v>       0.38081166       0.06969810       0.19995080 </v>
    <v>       0.88081166       0.06969810       0.19995080 </v>
    <v>       0.13081166       0.56969810       0.19995080 </v>
    <v>       0.63081166       0.56969810       0.19995080 </v>
    <v>       0.13081284       0.06968995       0.34440707 </v>
    <v>       0.63081284       0.06968995       0.34440694 </v>
    <v>       0.38081416       0.56968565       0.34346241 </v>
    <v>       0.88081387       0.56968566       0.34346241 </v>
    <v>       0.38081607       0.06968850       0.49298059 </v>
    <v>       0.88081651       0.06968850       0.49298058 </v>
    <v>       0.13081648       0.56969285       0.48386318 </v>
    <v>       0.63081647       0.56969284       0.48386319 </v>
   </varray>
  </structure>
  <varray name="forces" >
   <v>       0.79877490       0.79722186       0.00142453 </v>
   <v>       0.79877285       0.79721990       0.00142446 </v>
   <v>      -1.85928351       0.41852365      -0.00014660 </v>
   <v>      -1.85928480       0.41852178      -0.00014737 </v>
   <v>       0.42007540      -1.85700320       0.00038683 </v>
   <v>       0.42007276      -1.85700249       0.00038612 </v>
   <v>       1.06212453       1.05966082      -0.00253305 </v>
   <v>       1.06212765       1.05966165      -0.00253051 </v>
   <v>      -0.36784879      -0.37125801       0.00071727 </v>
   <v>      -0.36784598      -0.37125699       0.00071758 </v>
   <v>      -0.08713826       0.14917136       0.00113770 </v>
   <v>      -0.08714138       0.14917376       0.00113529 </v>
   <v>       0.14928829      -0.08725453       0.00031177 </v>
   <v>       0.14929226      -0.08724742       0.00031108 </v>
   <v>      -0.07098052      -0.07551163       0.00010915 </v>
   <v>      -0.07099724      -0.07552463       0.00010898 </v>
   <v>       0.03240942       0.03028155      -0.00093327 </v>
   <v>       0.03238560       0.03025672      -0.00093111 </v>
   <v>       0.07914279      -0.37122874      -0.00008443 </v>
   <v>       0.07914212      -0.37122231      -0.00006572 </v>
   <v>      -0.37475378       0.08366688       0.00017594 </v>
   <v>      -0.37473459       0.08366511       0.00018792 </v>
   <v>      -0.64943750      -0.65207394      -0.00234708 </v>
   <v>      -0.64939683      -0.65204400      -0.00233910 </v>
   <v>       0.58662779       0.58663158      -0.00231146 </v>
   <v>       0.58638227       0.58636906      -0.00231038 </v>
   <v>       0.27596262       0.94820354      -0.00180629 </v>
   <v>       0.27595479       0.94820006      -0.00173069 </v>
   <v>       0.95134607       0.27246453       0.00174706 </v>
   <v>       0.95135573       0.27245537       0.00182608 </v>
   <v>       0.51118621       0.51151612      -0.00224729 </v>
   <v>       0.51128685       0.51162575      -0.00222512 </v>
   <v>       1.98688999       1.98897910       0.00071123 </v>
   <v>       1.98688997       1.98897785       0.00071040 </v>
   <v>      -2.22955438      -2.22628538       0.00099062 </v>
   <v>      -2.22955573      -2.22628611       0.00099324 </v>
   <v>       0.34335385       0.34689546       0.00176464 </v>
   <v>       0.34335260       0.34689249       0.00177611 </v>
   <v>      -0.19984771      -0.19857116       0.00113908 </v>
   <v>      -0.19985051      -0.19857601       0.00113580 </v>
   <v>       0.20136143       0.20189769       0.00180869 </v>
   <v>       0.20149407       0.20202649       0.00181397 </v>
   <v>      -0.22786399      -0.22595830       0.00001460 </v>
   <v>      -0.22786376      -0.22595740       0.00008740 </v>
   <v>      -0.61316937      -0.61179538       0.00090028 </v>
   <v>      -0.61315824      -0.61179596       0.00079065 </v>
   <v>      -0.71866713      -0.71814760      -0.00102691 </v>
   <v>      -0.71867881      -0.71815894      -0.00102811 </v>
  </varray>
  <varray name="stress" >
   <v>      20.60963511      -8.65029222      -0.00619656 </v>
   <v>      -8.65029221      20.61913966      -0.00977025 </v>
   <v>      -0.00619651      -0.00977027     -22.31735270 </v>
  </varray>
  <energy>
   <i name="e_fr_energy">   -308.80540683 </i>
   <i name="e_wo_entrp">   -308.80540683 </i>
   <i name="e_0_energy">     -0.00000000 </i>
  </energy>
  <time name="totalsc">  125.40  125.57</time>
 </calculation>
 <calculation>
  <scstep>
   <time name="dav">   22.09   22.10</time>
   <time name="total">   23.08   23.09</time>
   <energy>
    <i name="alphaZ">    475.87937441 </i>
    <i name="ewald">  41378.47752412 </i>
    <i name="hartreedc"> -56595.71544356 </i>
    <i name="XCdc">    817.10214870 </i>
    <i name="pawpsdc">  20222.97022909 </i>
    <i name="pawaedc"> -20062.23074311 </i>
    <i name="eentropy">     -0.00000000 </i>
    <i name="bandstr">  -2052.47625124 </i>
    <i name="atom">  15515.33824780 </i>
    <i name="e_fr_energy">   -300.65491381 </i>
    <i name="e_wo_entrp">   -300.65491381 </i>
    <i name="e_0_energy">   -300.65491381 </i>
   </energy>
  </scstep>
  <scstep>
   <time name="diag">    3.52    3.52</time>
   <time name="diis">   11.49   11.49</time>
   <time name="orth">    0.61    0.61</time>
   <time name="total">   16.60   16.61</time>
   <energy>
    <i name="e_fr_energy">   -300.65600396 </i>
    <i name="e_wo_entrp">   -300.65600396 </i>
    <i name="e_0_energy">   -300.65600396 </i>
   </energy>
  </scstep>
  <scstep>
   <time name="diag">    3.52    3.52</time>
   <time name="diis">    8.82    8.83</time>
   <time name="orth">    0.61    0.61</time>
   <time name="total">   13.24   13.25</time>
   <energy>
    <i name="alphaZ">    475.87937441 </i>
    <i name="ewald">  41378.47752412 </i>
    <i name="hartreedc"> -56595.34714562 </i>
    <i name="XCdc">    817.07960010 </i>
    <i name="pawpsdc">  20215.00930052 </i>
    <i name="pawaedc"> -20054.25402334 </i>
    <i name="eentropy">     -0.00000000 </i>
    <i name="bandstr">  -2052.83878228 </i>
    <i name="atom">  15515.33824780 </i>
    <i name="e_fr_energy">   -300.65590430 </i>
    <i name="e_wo_entrp">   -300.65590430 </i>
    <i name="e_0_energy">   -300.65590430 </i>
   </energy>
  </scstep>
  <structure>
   <crystal>
    <varray name="basis" >
     <v>       0.00000000       0.00000000       5.84467938 </v>
     <v>       4.46847660      -4.46847660       0.00000000 </v>
     <v>      15.50630046      15.50630046       0.00000000 </v>
    </varray>
    <i name="volume">    809.95030024 </i>
    <varray name="rec_basis" >
     <v>       0.00000000       0.00000000       0.17109578 </v>
     <v>       0.11189496      -0.11189496       0.00000000 </v>
     <v>       0.03224496       0.03224496       0.00000000 </v>
    </varray>
   </crystal>
   <varray name="positions" >
    <v>       0.13081166       0.56969810       0.00000000 </v>
    <v>       0.63081166       0.56969810       0.00000000 </v>
    <v>       0.38081166       0.26355810       0.05586496 </v>
    <v>       0.88081166       0.26355810       0.05586496 </v>
    <v>       0.38081166       0.87583810       0.05586496 </v>
    <v>       0.88081166       0.87583810       0.05586496 </v>
    <v>       0.13081166       0.56969810       0.11172992 </v>
    <v>       0.63081166       0.56969810       0.11172992 </v>
    <v>       0.13081166       0.06969810       0.14408584 </v>
    <v>       0.63081166       0.06969810       0.14408584 </v>
    <v>       0.38081166       0.37583810       0.19995080 </v>
    <v>       0.88081166       0.37583810       0.19995080 </v>
    <v>       0.38081166       0.76355810       0.19995080 </v>
    <v>       0.88081166       0.76355810       0.19995080 </v>
    <v>       0.13081166       0.06969810       0.25581576 </v>
    <v>       0.63081166       0.06969810       0.25581576 </v>
    <v>       0.13080082       0.56970733       0.28828567 </v>
    <v>       0.63080083       0.56970733       0.28828567 </v>
    <v>       0.38081160       0.26464364       0.34398061 </v>
    <v>       0.88081137       0.26464364       0.34398062 </v>
    <v>       0.38081713       0.87475034       0.34397730 </v>
    <v>       0.88081691       0.87475031       0.34397730 </v>
    <v>       0.13081322       0.56970103       0.40059295 </v>
    <v>       0.63081320       0.56970103       0.40059290 </v>
    <v>       0.13080415       0.06971078       0.43006844 </v>
    <v>       0.63080415       0.06971077       0.43006888 </v>
    <v>       0.38081279       0.38390155       0.48957392 </v>
    <v>       0.88081250       0.38390152       0.48957392 </v>
    <v>       0.38080092       0.75549404       0.48957658 </v>
    <v>       0.88080059       0.75549406       0.48957658 </v>
    <v>       0.13081663       0.06970657       0.54234636 </v>
    <v>       0.63081661       0.06970657       0.54234609 </v>
    <v>       0.13081166       0.06969810       0.05586496 </v>
    <v>       0.63081166       0.06969810       0.05586496 </v>
    <v>       0.38081166       0.56969810       0.05586496 </v>
    <v>       0.88081166       0.56969810       0.05586496 </v>
    <v>       0.38081166       0.06969810       0.19995080 </v>
    <v>       0.88081166       0.06969810       0.19995080 </v>
    <v>       0.13081166       0.56969810       0.19995080 </v>
    <v>       0.63081166       0.56969810       0.19995080 </v>
    <v>       0.13081277       0.06969044       0.34438502 </v>
    <v>       0.63081277       0.06969043       0.34438490 </v>
    <v>       0.38081401       0.56968639       0.34349660 </v>
    <v>       0.88081374       0.56968640       0.34349659 </v>
    <v>       0.38081581       0.06968907       0.49269136 </v>
    <v>       0.88081622       0.06968907       0.49269135 </v>
    <v>       0.13081620       0.56969316       0.48411676 </v>
    <v>       0.63081619       0.56969315       0.48411677 </v>
   </varray>
  </structure>
  <varray name="forces" >
   <v>       0.79917741       0.79755506       0.00134299 </v>
   <v>       0.79917616       0.79755556       0.00134411 </v>
   <v>      -1.85797353       0.42011761      -0.00022638 </v>
   <v>      -1.85797425       0.42011734      -0.00022548 </v>
   <v>       0.42174058      -1.85576241       0.00030758 </v>
   <v>       0.42174159      -1.85576290       0.00030794 </v>
   <v>       1.06492510       1.06238899      -0.00261347 </v>
   <v>       1.06492272       1.06238559      -0.00261346 </v>
   <v>      -0.36529592      -0.36877307       0.00063940 </v>
   <v>      -0.36529562      -0.36877163       0.00063951 </v>
   <v>      -0.08953787       0.14997147       0.00106584 </v>
   <v>      -0.08953634       0.14997034       0.00106163 </v>
   <v>       0.15016142      -0.08971751       0.00023547 </v>
   <v>       0.15015829      -0.08971262       0.00023333 </v>
   <v>      -0.07291591      -0.07750309       0.00002618 </v>
   <v>      -0.07293430      -0.07752418       0.00002913 </v>
   <v>       0.03295395       0.03119866      -0.00125831 </v>
   <v>       0.03293231       0.03117364      -0.00126313 </v>
   <v>       0.07984276      -0.36379638      -0.00015818 </v>
   <v>       0.07985592      -0.36379448      -0.00013447 </v>
   <v>      -0.36717362       0.08415359       0.00010880 </v>
   <v>      -0.36717347       0.08414473       0.00013482 </v>
   <v>      -0.56717713      -0.57001317      -0.00172496 </v>
   <v>      -0.56712851      -0.56998967      -0.00172760 </v>
   <v>       0.50257137       0.50224650      -0.00143950 </v>
   <v>       0.50231397       0.50200219      -0.00144189 </v>
   <v>       0.36856569       0.86466663      -0.00135726 </v>
   <v>       0.36855615       0.86465759      -0.00128159 </v>
   <v>       0.86741982       0.36656850       0.00090192 </v>
   <v>       0.86741950       0.36657827       0.00095790 </v>
   <v>       0.43331535       0.43346043      -0.00176961 </v>
   <v>       0.43340419       0.43356542      -0.00176576 </v>
   <v>       1.98432886       1.98634571       0.00063166 </v>
   <v>       1.98432860       1.98634548       0.00063167 </v>
   <v>      -2.23202044      -2.22882173       0.00091280 </v>
   <v>      -2.23202102      -2.22882171       0.00091241 </v>
   <v>       0.34021951       0.34368166       0.00168905 </v>
   <v>       0.34022052       0.34368219       0.00169468 </v>
   <v>      -0.19817258      -0.19695933       0.00106229 </v>
   <v>      -0.19817389      -0.19696203       0.00106243 </v>
   <v>       0.20838256       0.20916653       0.00158085 </v>
   <v>       0.20850184       0.20928898       0.00157950 </v>
   <v>      -0.22805860      -0.22608225       0.00027706 </v>
   <v>      -0.22806127      -0.22607987       0.00034075 </v>
   <v>      -0.46191240      -0.46041079       0.00099392 </v>
   <v>      -0.46188903      -0.46040947       0.00092503 </v>
   <v>      -0.81335395      -0.81364939      -0.00132289 </v>
   <v>      -0.81335648      -0.81367095      -0.00130671 </v>
  </varray>
  <varray name="stress" >
   <v>      19.98713409      -9.30147643      -0.00780557 </v>
   <v>      -9.30147646      19.99528623      -0.01358234 </v>
   <v>      -0.00780544      -0.01358234     -23.11733003 </v>
  </varray>
  <energy>
   <i name="e_fr_energy">   -308.80948059 </i>
   <i name="e_wo_entrp">   -308.80948058 </i>
   <i name="e_0_energy">     -0.00000000 </i>
  </energy>
  <time name="totalsc">   76.07   76.11</time>
 </calculation>
 <calculation>
  <scstep>
   <time name="dav">   20.87   20.88</time>
   <time name="total">   21.86   21.87</time>
   <energy>
    <i name="alphaZ">    475.87937441 </i>
    <i name="ewald">  41338.86563824 </i>
    <i name="hartreedc"> -56555.54429264 </i>
    <i name="XCdc">    817.11637777 </i>
    <i name="pawpsdc">  20211.25639279 </i>
    <i name="pawaedc"> -20050.49286806 </i>
    <i name="eentropy">     -0.00000000 </i>
    <i name="bandstr">  -2053.20051134 </i>
    <i name="atom">  15515.33824780 </i>
    <i name="e_fr_energy">   -300.78164104 </i>
    <i name="e_wo_entrp">   -300.78164104 </i>
    <i name="e_0_energy">   -300.78164104 </i>
   </energy>
  </scstep>
  <scstep>
   <time name="diag">    3.51    3.52</time>
   <time name="diis">   11.77   11.78</time>
   <time name="orth">    0.61    0.61</time>
   <time name="total">   16.88   16.89</time>
   <energy>
    <i name="e_fr_energy">   -300.78917653 </i>
    <i name="e_wo_entrp">   -300.78917653 </i>
    <i name="e_0_energy">   -300.78917653 </i>
   </energy>
  </scstep>
  <scstep>
   <time name="diag">    3.50    3.50</time>
   <time name="diis">   11.56   11.56</time>
   <time name="orth">    0.61    0.61</time>
   <time name="total">   16.65   16.66</time>
   <energy>
    <i name="e_fr_energy">   -300.78709108 </i>
    <i name="e_wo_entrp">   -300.78709108 </i>
    <i name="e_0_energy">   -300.78709108 </i>
   </energy>
  </scstep>
  <scstep>
   <time name="diag">    3.50    3.50</time>
   <time name="diis">   11.55   11.56</time>
   <time name="orth">    0.61    0.61</time>
   <time name="total">   16.65   16.66</time>
   <energy>
    <i name="e_fr_energy">   -300.78571084 </i>
    <i name="e_wo_entrp">   -300.78571084 </i>
    <i name="e_0_energy">   -300.78571084 </i>
   </energy>
  </scstep>
  <scstep>
   <time name="diag">    3.50    3.50</time>
   <time name="diis">    8.16    8.16</time>
   <time name="orth">    0.61    0.61</time>
   <time name="total">   12.56   12.56</time>
   <energy>
    <i name="alphaZ">    475.87937441 </i>
    <i name="ewald">  41338.86563824 </i>
    <i name="hartreedc"> -56547.10984243 </i>
    <i name="XCdc">    817.11536789 </i>
    <i name="pawpsdc">  20215.55237333 </i>
    <i name="pawaedc"> -20054.78997353 </i>
    <i name="eentropy">     -0.00000000 </i>
    <i name="bandstr">  -2061.63693739 </i>
    <i name="atom">  15515.33824780 </i>
    <i name="e_fr_energy">   -300.78575169 </i>
    <i name="e_wo_entrp">   -300.78575169 </i>
    <i name="e_0_energy">   -300.78575169 </i>
   </energy>
  </scstep>
  <structure>
   <crystal>
    <varray name="basis" >
     <v>       0.00000000       0.00000000       5.84467938 </v>
     <v>       4.46847660      -4.46847660       0.00000000 </v>
     <v>      15.50630046      15.50630046       0.00000000 </v>
    </varray>
    <i name="volume">    809.95030024 </i>
    <varray name="rec_basis" >
     <v>       0.00000000       0.00000000       0.17109578 </v>
     <v>       0.11189496      -0.11189496       0.00000000 </v>
     <v>       0.03224496       0.03224496       0.00000000 </v>
    </varray>
   </crystal>
   <varray name="positions" >
    <v>       0.13081166       0.56969810       0.00000000 </v>
    <v>       0.63081166       0.56969810       0.00000000 </v>
    <v>       0.38081166       0.26355810       0.05586496 </v>
    <v>       0.88081166       0.26355810       0.05586496 </v>
    <v>       0.38081166       0.87583810       0.05586496 </v>
    <v>       0.88081166       0.87583810       0.05586496 </v>
    <v>       0.13081166       0.56969810       0.11172992 </v>
    <v>       0.63081166       0.56969810       0.11172992 </v>
    <v>       0.13081166       0.06969810       0.14408584 </v>
    <v>       0.63081166       0.06969810       0.14408584 </v>
    <v>       0.38081166       0.37583810       0.19995080 </v>
    <v>       0.88081166       0.37583810       0.19995080 </v>
    <v>       0.38081166       0.76355810       0.19995080 </v>
    <v>       0.88081166       0.76355810       0.19995080 </v>
    <v>       0.13081166       0.06969810       0.25581576 </v>
    <v>       0.63081166       0.06969810       0.25581576 </v>
    <v>       0.13079688       0.56971088       0.28832440 </v>
    <v>       0.63079687       0.56971088       0.28832439 </v>
    <v>       0.38081122       0.26543283       0.34384731 </v>
    <v>       0.88081102       0.26543285       0.34384732 </v>
    <v>       0.38081785       0.87394889       0.34384414 </v>
    <v>       0.88081768       0.87394886       0.34384414 </v>
    <v>       0.13080921       0.56970573       0.40013698 </v>
    <v>       0.63080918       0.56970577       0.40013695 </v>
    <v>       0.13080005       0.06971237       0.43033713 </v>
    <v>       0.63080005       0.06971234       0.43033738 </v>
    <v>       0.38080962       0.38380799       0.49025560 </v>
    <v>       0.88080949       0.38380795       0.49025559 </v>
    <v>       0.38080217       0.75559501       0.49025882 </v>
    <v>       0.88080195       0.75559502       0.49025883 </v>
    <v>       0.13081280       0.06970706       0.54259916 </v>
    <v>       0.63081279       0.06970704       0.54259895 </v>
    <v>       0.13081166       0.06969810       0.05586496 </v>
    <v>       0.63081166       0.06969810       0.05586496 </v>
    <v>       0.38081166       0.56969810       0.05586496 </v>
    <v>       0.88081166       0.56969810       0.05586496 </v>
    <v>       0.38081166       0.06969810       0.19995080 </v>
    <v>       0.88081166       0.06969810       0.19995080 </v>
    <v>       0.13081166       0.56969810       0.19995080 </v>
    <v>       0.63081166       0.56969810       0.19995080 </v>
    <v>       0.13081666       0.06968855       0.34460365 </v>
    <v>       0.63081665       0.06968854       0.34460363 </v>
    <v>       0.38081488       0.56968229       0.34324510 </v>
    <v>       0.88081474       0.56968229       0.34324510 </v>
    <v>       0.38081855       0.06968595       0.49266240 </v>
    <v>       0.88081883       0.06968598       0.49266240 </v>
    <v>       0.13081341       0.56969321       0.48303962 </v>
    <v>       0.63081343       0.56969323       0.48303962 </v>
   </varray>
  </structure>
  <varray name="forces" >
   <v>       0.80711955       0.80546865       0.00116378 </v>
   <v>       0.80711748       0.80546743       0.00116423 </v>
   <v>      -1.85446409       0.42460391      -0.00041041 </v>
   <v>      -1.85446381       0.42460360      -0.00041026 </v>
   <v>       0.42624781      -1.85227916       0.00013597 </v>
   <v>       0.42624947      -1.85228003       0.00013435 </v>
   <v>       1.07611105       1.07355615      -0.00279699 </v>
   <v>       1.07611192       1.07355435      -0.00279603 </v>
   <v>      -0.35615087      -0.35964830       0.00045193 </v>
   <v>      -0.35615173      -0.35964791       0.00045004 </v>
   <v>      -0.07821158       0.15170669       0.00085196 </v>
   <v>      -0.07821360       0.15170741       0.00085205 </v>
   <v>       0.15187642      -0.07843109       0.00002780 </v>
   <v>       0.15187626      -0.07843363       0.00002803 </v>
   <v>      -0.03345531      -0.03804804      -0.00013339 </v>
   <v>      -0.03346709      -0.03806145      -0.00012999 </v>
   <v>      -0.04424687      -0.04579105      -0.00026907 </v>
   <v>      -0.04424895      -0.04579618      -0.00026936 </v>
   <v>      -0.00586564      -0.21532494      -0.00113976 </v>
   <v>      -0.00586222      -0.21532292      -0.00113114 </v>
   <v>      -0.21925997      -0.00026420      -0.00047451 </v>
   <v>      -0.21925316      -0.00026552      -0.00046763 </v>
   <v>      -0.58399149      -0.58460049       0.00117474 </v>
   <v>      -0.58396744      -0.58458324       0.00117670 </v>
   <v>       0.35338550       0.35082269      -0.00222699 </v>
   <v>       0.35327939       0.35071659      -0.00222582 </v>
   <v>       0.31195853       0.66674883      -0.00100941 </v>
   <v>       0.31196348       0.66674192      -0.00098477 </v>
   <v>       0.66931198       0.31002050       0.00169445 </v>
   <v>       0.66930580       0.31002709       0.00174690 </v>
   <v>       0.32469833       0.32369974      -0.00025822 </v>
   <v>       0.32479380       0.32378960      -0.00025899 </v>
   <v>       1.96892389       1.97092025       0.00044922 </v>
   <v>       1.96892394       1.97092085       0.00044948 </v>
   <v>      -2.24708185      -2.24390621       0.00073116 </v>
   <v>      -2.24708213      -2.24390561       0.00073154 </v>
   <v>       0.33604839       0.33954388       0.00150752 </v>
   <v>       0.33604868       0.33954476       0.00150301 </v>
   <v>      -0.22600259      -0.22486617       0.00085743 </v>
   <v>      -0.22600451      -0.22486897       0.00085724 </v>
   <v>       0.16063690       0.16232497       0.00096356 </v>
   <v>       0.16068487       0.16237252       0.00096467 </v>
   <v>      -0.28551062      -0.28396153      -0.00045884 </v>
   <v>      -0.28551125      -0.28395933      -0.00042718 </v>
   <v>      -0.22343485      -0.22251617      -0.00013838 </v>
   <v>      -0.22343833      -0.22251462      -0.00016709 </v>
   <v>      -0.42866101      -0.42979541      -0.00073974 </v>
   <v>      -0.42867250      -0.42979023      -0.00074376 </v>
  </varray>
  <varray name="stress" >
   <v>      20.58097333      -7.77709506       0.00180767 </v>
   <v>      -7.77709508      20.58567340       0.00972556 </v>
   <v>       0.00180766       0.00972559     -24.06619226 </v>
  </varray>
  <energy>
   <i name="e_fr_energy">   -308.94151511 </i>
   <i name="e_wo_entrp">   -308.94151511 </i>
   <i name="e_0_energy">     -0.00000000 </i>
  </energy>
  <time name="totalsc">  107.72  107.78</time>
 </calculation>
 <calculation>
  <scstep>
   <time name="dav">   20.78   20.78</time>
   <time name="total">   21.77   21.77</time>
   <energy>
    <i name="alphaZ">    475.87937441 </i>
    <i name="ewald">  41239.56860629 </i>
    <i name="hartreedc"> -56447.30718432 </i>
    <i name="XCdc">    817.17244006 </i>
    <i name="pawpsdc">  20215.79881511 </i>
    <i name="pawaedc"> -20055.03502575 </i>
    <i name="eentropy">     -0.00000000 </i>
    <i name="bandstr">  -2062.29166516 </i>
    <i name="atom">  15515.33824780 </i>
    <i name="e_fr_energy">   -300.87639156 </i>
    <i name="e_wo_entrp">   -300.87639156 </i>
    <i name="e_0_energy">   -300.87639156 </i>
   </energy>
  </scstep>
  <scstep>
   <time name="diag">    3.50    3.50</time>
   <time name="diis">   11.79   11.80</time>
   <time name="orth">    0.61    0.61</time>
   <time name="total">   16.89   16.90</time>
   <energy>
    <i name="e_fr_energy">   -300.92492723 </i>
    <i name="e_wo_entrp">   -300.92492723 </i>
    <i name="e_0_energy">   -300.92492723 </i>
   </energy>
[...]
       <r>   -22.0881     0.0000     0.0000 </r>
       <r>   -21.9704     0.0000     0.0000 </r>
       <r>   -21.8527     0.0000     0.0000 </r>
       <r>   -21.7349     0.0000     0.0000 </r>
       <r>   -21.6172     0.0090     0.0011 </r>
       <r>   -21.4995     0.5087     0.0610 </r>
       <r>   -21.3817     1.6298     0.2528 </r>
       <r>   -21.2640     2.5968     0.5586 </r>
       <r>   -21.1463     2.1377     0.8102 </r>
       <r>   -21.0285     2.8159     1.1418 </r>
       <r>   -20.9108     3.2381     1.5230 </r>
       <r>   -20.7931     3.1605     1.8951 </r>
       <r>   -20.6753     3.5353     2.3113 </r>
       <r>   -20.5576     5.6251     2.9736 </r>
       <r>   -20.4399     2.8876     3.3136 </r>
       <r>   -20.3221     2.4093     3.5972 </r>
       <r>   -20.2044     8.9904     4.6557 </r>
       <r>   -20.0867     9.9368     5.8256 </r>
       <r>   -19.9689     3.5656     6.2454 </r>
       <r>   -19.8512     7.2194     7.0954 </r>
       <r>   -19.7335    12.9623     8.6214 </r>
       <r>   -19.6157     3.4474     9.0273 </r>
       <r>   -19.4980     8.7139    10.0532 </r>
       <r>   -19.3803     8.8454    11.0946 </r>
       <r>   -19.2625     5.3932    11.7296 </r>
       <r>   -19.1448    11.3187    13.0622 </r>
       <r>   -19.0271     7.3779    13.9308 </r>
       <r>   -18.9093     7.4049    14.8026 </r>
       <r>   -18.7916     7.2037    15.6507 </r>
       <r>   -18.6739     6.5357    16.4202 </r>
       <r>   -18.5561    11.2701    17.7471 </r>
       <r>   -18.4384    12.4886    19.2174 </r>
       <r>   -18.3207    12.4098    20.6785 </r>
       <r>   -18.2029    12.6112    22.1632 </r>
       <r>   -18.0852    15.4224    23.9790 </r>
       <r>   -17.9675    14.6717    25.7063 </r>
       <r>   -17.8497    14.6467    27.4307 </r>
       <r>   -17.7320     4.6350    27.9764 </r>
       <r>   -17.6143     0.2001    28.0000 </r>
       <r>   -17.4965     0.0000    28.0000 </r>
       <r>   -17.3788     0.0000    28.0000 </r>
       <r>   -17.2611     0.2394    28.0282 </r>
       <r>   -17.1433     2.8846    28.3678 </r>
       <r>   -17.0256     3.1892    28.7433 </r>
       <r>   -16.9079     0.8766    28.8465 </r>
       <r>   -16.7901     3.3526    29.2412 </r>
       <r>   -16.6724     0.2662    29.2725 </r>
       <r>   -16.5547     4.9477    29.8550 </r>
       <r>   -16.4369     5.8291    30.5413 </r>
       <r>   -16.3192     1.7692    30.7496 </r>
       <r>   -16.2014     1.6091    30.9391 </r>
       <r>   -16.0837     2.6252    31.2481 </r>
       <r>   -15.9660     0.2903    31.2823 </r>
       <r>   -15.8482     3.9220    31.7441 </r>
       <r>   -15.7305     2.0852    31.9896 </r>
       <r>   -15.6128     0.0885    32.0000 </r>
       <r>   -15.4950     0.0000    32.0000 </r>
       <r>   -15.3773     0.0000    32.0000 </r>
       <r>   -15.2596     0.0000    32.0000 </r>
       <r>   -15.1418     0.0000    32.0000 </r>
       <r>   -15.0241     0.0000    32.0000 </r>
       <r>   -14.9064     0.0000    32.0000 </r>
       <r>   -14.7886     0.0000    32.0000 </r>
       <r>   -14.6709     0.0000    32.0000 </r>
       <r>   -14.5532     0.0000    32.0000 </r>
       <r>   -14.4354     0.0000    32.0000 </r>
       <r>   -14.3177     0.0000    32.0000 </r>
       <r>   -14.2000     0.0000    32.0000 </r>
       <r>   -14.0822     0.0000    32.0000 </r>
       <r>   -13.9645     0.0000    32.0000 </r>
       <r>   -13.8468     0.0000    32.0000 </r>
       <r>   -13.7290     0.0000    32.0000 </r>
       <r>   -13.6113     0.0000    32.0000 </r>
       <r>   -13.4936     0.0000    32.0000 </r>
       <r>   -13.3758     0.0000    32.0000 </r>
       <r>   -13.2581     0.0000    32.0000 </r>
       <r>   -13.1404     0.0000    32.0000 </r>
       <r>   -13.0226     0.0000    32.0000 </r>
       <r>   -12.9049     0.0000    32.0000 </r>
       <r>   -12.7872     0.0000    32.0000 </r>
       <r>   -12.6694     0.0000    32.0000 </r>
       <r>   -12.5517     0.0000    32.0000 </r>
       <r>   -12.4340     0.0000    32.0000 </r>
       <r>   -12.3162     0.0000    32.0000 </r>
       <r>   -12.1985     0.0000    32.0000 </r>
       <r>   -12.0808     0.0000    32.0000 </r>
       <r>   -11.9630     0.0000    32.0000 </r>
       <r>   -11.8453     0.0000    32.0000 </r>
       <r>   -11.7276     0.0000    32.0000 </r>
       <r>   -11.6098     0.0000    32.0000 </r>
       <r>   -11.4921     0.0000    32.0000 </r>
       <r>   -11.3744     0.0000    32.0000 </r>
       <r>   -11.2566     0.0000    32.0000 </r>
       <r>   -11.1389     0.0000    32.0000 </r>
       <r>   -11.0212     0.0000    32.0000 </r>
       <r>   -10.9034     0.0004    32.0001 </r>
       <r>   -10.7857     0.8520    32.1004 </r>
       <r>   -10.6680     3.2175    32.4792 </r>
       <r>   -10.5502     2.0962    32.7260 </r>
       <r>   -10.4325     8.3653    33.7108 </r>
       <r>   -10.3148     3.6683    34.1427 </r>
       <r>   -10.1970     4.6483    34.6900 </r>
       <r>   -10.0793     2.9474    35.0370 </r>
       <r>    -9.9616     6.2597    35.7740 </r>
       <r>    -9.8438     5.0128    36.3641 </r>
       <r>    -9.7261     7.9687    37.3023 </r>
       <r>    -9.6084     4.8251    37.8704 </r>
       <r>    -9.4906     4.3411    38.3815 </r>
       <r>    -9.3729     4.3130    38.8893 </r>
       <r>    -9.2552     3.2169    39.2680 </r>
       <r>    -9.1374     7.7530    40.1808 </r>
       <r>    -9.0197     4.1143    40.6652 </r>
       <r>    -8.9020     5.2706    41.2857 </r>
       <r>    -8.7842     4.4769    41.8128 </r>
       <r>    -8.6665     4.3735    42.3277 </r>
       <r>    -8.5488     3.6414    42.7564 </r>
       <r>    -8.4310     4.5281    43.2895 </r>
       <r>    -8.3133     5.3074    43.9144 </r>
       <r>    -8.1956     3.5826    44.3362 </r>
       <r>    -8.0778     4.5019    44.8662 </r>
       <r>    -7.9601     2.0049    45.1023 </r>
       <r>    -7.8424     2.5382    45.4011 </r>
       <r>    -7.7246     2.2837    45.6699 </r>
       <r>    -7.6069     3.1490    46.0407 </r>
       <r>    -7.4892     4.3901    46.5575 </r>
       <r>    -7.3714     4.5999    47.0991 </r>
       <r>    -7.2537     8.3109    48.0776 </r>
       <r>    -7.1360     6.7958    48.8777 </r>
       <r>    -7.0182     8.5546    49.8848 </r>
       <r>    -6.9005     9.3606    50.9869 </r>
       <r>    -6.7828    13.2057    52.5417 </r>
       <r>    -6.6650     8.3553    53.5254 </r>
       <r>    -6.5473     7.7698    54.4401 </r>
       <r>    -6.4296     5.9995    55.1465 </r>
       <r>    -6.3118     7.0529    55.9768 </r>
       <r>    -6.1941     8.0316    56.9224 </r>
       <r>    -6.0763     9.8841    58.0861 </r>
       <r>    -5.9586    12.5359    59.5620 </r>
       <r>    -5.8409    10.3977    60.7862 </r>
       <r>    -5.7231    10.0705    61.9718 </r>
       <r>    -5.6054    11.4662    63.3218 </r>
       <r>    -5.4877     9.9397    64.4920 </r>
       <r>    -5.3699    12.5896    65.9742 </r>
       <r>    -5.2522    12.9519    67.4991 </r>
       <r>    -5.1345     9.8229    68.6556 </r>
       <r>    -5.0167    12.3019    70.1040 </r>
       <r>    -4.8990    12.8240    71.6138 </r>
       <r>    -4.7813    12.3630    73.0693 </r>
       <r>    -4.6635     9.1089    74.1418 </r>
       <r>    -4.5458     8.9304    75.1932 </r>
       <r>    -4.4281     8.9324    76.2448 </r>
       <r>    -4.3103    11.4161    77.5889 </r>
       <r>    -4.1926    12.1656    79.0212 </r>
       <r>    -4.0749     6.2137    79.7527 </r>
       <r>    -3.9571    10.1058    80.9425 </r>
       <r>    -3.8394    10.4520    82.1731 </r>
       <r>    -3.7217    14.9794    83.9367 </r>
       <r>    -3.6039    18.4035    86.1034 </r>
       <r>    -3.4862     9.3859    87.2084 </r>
       <r>    -3.3685    15.3567    89.0164 </r>
       <r>    -3.2507    18.1676    91.1554 </r>
       <r>    -3.1330    15.7503    93.0097 </r>
       <r>    -3.0153    15.9111    94.8830 </r>
       <r>    -2.8975    15.9286    96.7583 </r>
       <r>    -2.7798    11.2254    98.0799 </r>
       <r>    -2.6621    16.3985   100.0106 </r>
       <r>    -2.5443    15.1412   101.7932 </r>
       <r>    -2.4266    19.4239   104.0801 </r>
       <r>    -2.3089    17.0184   106.0837 </r>
       <r>    -2.1911    21.2136   108.5813 </r>
       <r>    -2.0734    18.0438   110.7056 </r>
       <r>    -1.9557    11.5214   112.0621 </r>
       <r>    -1.8379    15.1333   113.8438 </r>
       <r>    -1.7202    14.1541   115.5102 </r>
       <r>    -1.6025    10.8525   116.7879 </r>
       <r>    -1.4847    10.4955   118.0236 </r>
       <r>    -1.3670    10.9964   119.3182 </r>
       <r>    -1.2493    12.9141   120.8386 </r>
       <r>    -1.1315     6.6690   121.6238 </r>
       <r>    -1.0138     3.1804   121.9982 </r>
       <r>    -0.8961     7.0758   122.8313 </r>
       <r>    -0.7783    11.2426   124.1549 </r>
       <r>    -0.6606    12.1729   125.5881 </r>
       <r>    -0.5429     3.3316   125.9803 </r>
       <r>    -0.4251     0.8410   126.0794 </r>
       <r>    -0.3074     4.0169   126.5523 </r>
       <r>    -0.1897     9.0869   127.6221 </r>
       <r>    -0.0719     3.1878   127.9974 </r>
       <r>     0.0458     0.0220   128.0000 </r>
       <r>     0.1635     0.0069   128.0008 </r>
       <r>     0.2813     0.4523   128.0541 </r>
       <r>     0.3990     0.0717   128.0625 </r>
       <r>     0.5167     0.0001   128.0625 </r>
       <r>     0.6345     0.2959   128.0973 </r>
       <r>     0.7522     0.8080   128.1925 </r>
       <r>     0.8699     1.2563   128.3404 </r>
       <r>     0.9877     1.8358   128.5565 </r>
       <r>     1.1054     1.6232   128.7476 </r>
       <r>     1.2231     1.1260   128.8802 </r>
       <r>     1.3409     0.5336   128.9430 </r>
       <r>     1.4586     2.3070   129.2146 </r>
       <r>     1.5763     2.8876   129.5546 </r>
       <r>     1.6941     5.1014   130.1552 </r>
       <r>     1.8118     3.4105   130.5568 </r>
       <r>     1.9295     1.1094   130.6874 </r>
       <r>     2.0473     0.3717   130.7311 </r>
       <r>     2.1650     1.6277   130.9228 </r>
       <r>     2.2827     0.3692   130.9662 </r>
       <r>     2.4005     0.8126   131.0619 </r>
       <r>     2.5182     0.1196   131.0760 </r>
       <r>     2.6359     1.9191   131.3019 </r>
       <r>     2.7537     1.0979   131.4312 </r>
       <r>     2.8714     3.7215   131.8693 </r>
       <r>     2.9891     1.0667   131.9949 </r>
       <r>     3.1069     0.4807   132.0515 </r>
       <r>     3.2246     3.0394   132.4094 </r>
       <r>     3.3423     5.0028   132.9984 </r>
       <r>     3.4601     4.9015   133.5754 </r>
       <r>     3.5778     4.5231   134.1080 </r>
       <r>     3.6955     2.2706   134.3753 </r>
       <r>     3.8133     2.0095   134.6119 </r>
       <r>     3.9310     6.4855   135.3754 </r>
       <r>     4.0488     6.0052   136.0825 </r>
       <r>     4.1665     7.5358   136.9697 </r>
       <r>     4.2842     4.6210   137.5137 </r>
       <r>     4.4020     7.0004   138.3379 </r>
       <r>     4.5197     2.0515   138.5794 </r>
       <r>     4.6374     2.9505   138.9268 </r>
       <r>     4.7552     7.6031   139.8219 </r>
       <r>     4.8729     7.2281   140.6729 </r>
       <r>     4.9906     4.3957   141.1905 </r>
       <r>     5.1084     5.2393   141.8073 </r>
       <r>     5.2261     4.5479   142.3428 </r>
       <r>     5.3438     3.9753   142.8108 </r>
       <r>     5.4616     0.9218   142.9193 </r>
       <r>     5.5793     3.0532   143.2788 </r>
       <r>     5.6970     6.6811   144.0654 </r>
       <r>     5.8148     3.3706   144.4622 </r>
       <r>     5.9325     8.0166   145.4060 </r>
       <r>     6.0502     3.1945   145.7821 </r>
       <r>     6.1680     5.0361   146.3750 </r>
       <r>     6.2857     6.8644   147.1832 </r>
       <r>     6.4034     6.8229   147.9865 </r>
       <r>     6.5212     9.6885   149.1272 </r>
       <r>     6.6389     7.4288   150.0018 </r>
       <r>     6.7566     3.4639   150.4096 </r>
       <r>     6.8744     2.9358   150.7552 </r>
       <r>     6.9921     2.5156   151.0514 </r>
       <r>     7.1098     4.6489   151.5987 </r>
       <r>     7.2276     5.3857   152.2328 </r>
       <r>     7.3453     5.6457   152.8975 </r>
       <r>     7.4630     2.7367   153.2197 </r>
       <r>     7.5808     8.5245   154.2233 </r>
       <r>     7.6985     5.2816   154.8451 </r>
       <r>     7.8162     7.6862   155.7501 </r>
       <r>     7.9340    10.5483   156.9920 </r>
       <r>     8.0517     5.7695   157.6712 </r>
       <r>     8.1694     6.2220   158.4038 </r>
       <r>     8.2872     9.3693   159.5068 </r>
       <r>     8.4049     9.1411   160.5831 </r>
       <r>     8.5226    11.4363   161.9295 </r>
       <r>     8.6404    10.0636   163.1143 </r>
       <r>     8.7581     9.0049   164.1745 </r>
       <r>     8.8758     6.8013   164.9752 </r>
       <r>     8.9936     9.3789   166.0795 </r>
       <r>     9.1113    12.7019   167.5749 </r>
       <r>     9.2290     7.0571   168.4058 </r>
       <r>     9.3468    10.1875   169.6052 </r>
       <r>     9.4645     9.9909   170.7814 </r>
       <r>     9.5822     6.7845   171.5802 </r>
       <r>     9.7000     9.5484   172.7044 </r>
       <r>     9.8177     7.9695   173.6426 </r>
       <r>     9.9354     6.1318   174.3646 </r>
       <r>    10.0532    11.7416   175.7469 </r>
       <r>    10.1709    13.9089   177.3845 </r>
       <r>    10.2886     8.0715   178.3348 </r>
       <r>    10.4064    10.2526   179.5419 </r>
       <r>    10.5241     2.3068   179.8135 </r>
       <r>    10.6418     1.5648   179.9977 </r>
       <r>    10.7596     0.0197   180.0000 </r>
       <r>    10.8773     0.0000   180.0000 </r>
       <r>    10.9950     0.0000   180.0000 </r>
       <r>    11.1128     0.0000   180.0000 </r>
       <r>    11.2305     0.0000   180.0000 </r>
       <r>    11.3482     0.0000   180.0000 </r>
       <r>    11.4660     0.0000   180.0000 </r>
       <r>    11.5837     0.0000   180.0000 </r>
       <r>    11.7014     0.0000   180.0000 </r>
       <r>    11.8192     0.0000   180.0000 </r>
       <r>    11.9369     0.0000   180.0000 </r>
       <r>    12.0546     0.0000   180.0000 </r>
       <r>    12.1724     0.0000   180.0000 </r>
      </set>
     </set>
    </array>
   </total>
  </dos>
 </calculation>
 <structure name="finalpos" >
  <crystal>
   <varray name="basis" >
    <v>       0.00000000       0.00000000       5.84467938 </v>
    <v>       4.46847660      -4.46847660       0.00000000 </v>
    <v>      15.50630046      15.50630046       0.00000000 </v>
   </varray>
   <i name="volume">    809.95030024 </i>
   <varray name="rec_basis" >
    <v>       0.00000000       0.00000000       0.17109578 </v>
    <v>       0.11189496      -0.11189496       0.00000000 </v>
    <v>       0.03224496       0.03224496       0.00000000 </v>
   </varray>
  </crystal>
  <varray name="positions" >
   <v>       0.13081166       0.56969810       0.00000000 </v>
   <v>       0.63081166       0.56969810       0.00000000 </v>
   <v>       0.38081166       0.26355810       0.05586496 </v>
   <v>       0.88081166       0.26355810       0.05586496 </v>
   <v>       0.38081166       0.87583810       0.05586496 </v>
   <v>       0.88081166       0.87583810       0.05586496 </v>
   <v>       0.13081166       0.56969810       0.11172992 </v>
   <v>       0.63081166       0.56969810       0.11172992 </v>
   <v>       0.13081166       0.06969810       0.14408584 </v>
   <v>       0.63081166       0.06969810       0.14408584 </v>
   <v>       0.38081166       0.37583810       0.19995080 </v>
   <v>       0.88081166       0.37583810       0.19995080 </v>
   <v>       0.38081166       0.76355810       0.19995080 </v>
   <v>       0.88081166       0.76355810       0.19995080 </v>
   <v>       0.13081166       0.06969810       0.25581576 </v>
   <v>       0.63081166       0.06969810       0.25581576 </v>
   <v>       0.13080340       0.56965575       0.28744315 </v>
   <v>       0.63080338       0.56965576       0.28744316 </v>
   <v>       0.38077066       0.26586172       0.34398464 </v>
   <v>       0.88077066       0.26586173       0.34398464 </v>
   <v>       0.38078980       0.87329868       0.34398076 </v>
   <v>       0.88078976       0.87329868       0.34398075 </v>
   <v>       0.13073933       0.56969328       0.39851957 </v>
   <v>       0.63073934       0.56969329       0.39851958 </v>
   <v>       0.13073602       0.06979623       0.43377086 </v>
   <v>       0.63073601       0.06979628       0.43377084 </v>
   <v>       0.38070547       0.38408563       0.49563713 </v>
   <v>       0.88070552       0.38408565       0.49563714 </v>
   <v>       0.38076195       0.75562025       0.49560452 </v>
   <v>       0.88076196       0.75562026       0.49560451 </v>
   <v>       0.13073983       0.06991635       0.54743126 </v>
   <v>       0.63073984       0.06991630       0.54743126 </v>
   <v>       0.13081166       0.06969810       0.05586496 </v>
   <v>       0.63081166       0.06969810       0.05586496 </v>
   <v>       0.38081166       0.56969810       0.05586496 </v>
   <v>       0.88081166       0.56969810       0.05586496 </v>
   <v>       0.38081166       0.06969810       0.19995080 </v>
   <v>       0.88081166       0.06969810       0.19995080 </v>
   <v>       0.13081166       0.56969810       0.19995080 </v>
   <v>       0.63081166       0.56969810       0.19995080 </v>
   <v>       0.13078269       0.06957640       0.34693504 </v>
   <v>       0.63078269       0.06957642       0.34693504 </v>
   <v>       0.38078286       0.56955928       0.34140234 </v>
   <v>       0.88078285       0.56955928       0.34140234 </v>
   <v>       0.38072604       0.06980947       0.49694837 </v>
   <v>       0.88072608       0.06980952       0.49694836 </v>
   <v>       0.13075569       0.56981224       0.48227955 </v>
   <v>       0.63075568       0.56981223       0.48227955 </v>
  </varray>
  <varray name="selective"  type="logical" >
   <v type="logical" >  F  F  F </v>
   <v type="logical" >  F  F  F </v>
   <v type="logical" >  F  F  F </v>
   <v type="logical" >  F  F  F </v>
   <v type="logical" >  F  F  F </v>
   <v type="logical" >  F  F  F </v>
   <v type="logical" >  F  F  F </v>
   <v type="logical" >  F  F  F </v>
   <v type="logical" >  F  F  F </v>
   <v type="logical" >  F  F  F </v>
   <v type="logical" >  F  F  F </v>
   <v type="logical" >  F  F  F </v>
   <v type="logical" >  F  F  F </v>
   <v type="logical" >  F  F  F </v>
   <v type="logical" >  F  F  F </v>
   <v type="logical" >  F  F  F </v>
   <v type="logical" >  T  T  T </v>
   <v type="logical" >  T  T  T </v>
   <v type="logical" >  T  T  T </v>
   <v type="logical" >  T  T  T </v>
   <v type="logical" >  T  T  T </v>
   <v type="logical" >  T  T  T </v>
   <v type="logical" >  T  T  T </v>
   <v type="logical" >  T  T  T </v>
   <v type="logical" >  T  T  T </v>
   <v type="logical" >  T  T  T </v>
   <v type="logical" >  T  T  T </v>
   <v type="logical" >  T  T  T </v>
   <v type="logical" >  T  T  T </v>
   <v type="logical" >  T  T  T </v>
   <v type="logical" >  T  T  T </v>
   <v type="logical" >  T  T  T </v>
   <v type="logical" >  F  F  F </v>
   <v type="logical" >  F  F  F </v>
   <v type="logical" >  F  F  F </v>
   <v type="logical" >  F  F  F </v>
   <v type="logical" >  F  F  F </v>
   <v type="logical" >  F  F  F </v>
   <v type="logical" >  F  F  F </v>
   <v type="logical" >  F  F  F </v>
   <v type="logical" >  T  T  T </v>
   <v type="logical" >  T  T  T </v>
   <v type="logical" >  T  T  T </v>
   <v type="logical" >  T  T  T </v>
   <v type="logical" >  T  T  T </v>
   <v type="logical" >  T  T  T </v>
   <v type="logical" >  T  T  T </v>
   <v type="logical" >  T  T  T </v>
  </varray>
  <nose>
   <v>      -3.00000000       0.00000000       0.00010000       0.00010000 </v>
  </nose>
 </structure>
</modeling>
