  48  48   0   0
  0.1806527E+02  0.6199679E-09  0.6358848E-09  0.2199571E-08  0.1000000E-15
  1.000000000000000E-004
  CAR 
 RhO2_suf110_2x1x4_2fix                  
     13.02807671    -20.53703658  301      0.99168186      1.00000000
    -20.537  0.0000E+00  0.0000E+00  0.0000E+00  0.0000E+00
    -20.425  0.0000E+00  0.0000E+00  0.0000E+00  0.0000E+00
    -20.313  0.0000E+00  0.0000E+00  0.0000E+00  0.0000E+00
    -20.201  0.0000E+00  0.0000E+00  0.0000E+00  0.0000E+00
    -20.090  0.0000E+00  0.0000E+00  0.0000E+00  0.0000E+00
    -19.978  0.0000E+00  0.0000E+00  0.0000E+00  0.0000E+00
    -19.866  0.0000E+00  0.0000E+00  0.0000E+00  0.0000E+00
    -19.754  0.0000E+00  0.0000E+00  0.0000E+00  0.0000E+00
    -19.642  0.0000E+00  0.0000E+00  0.0000E+00  0.0000E+00
    -19.530  0.0000E+00  0.0000E+00  0.0000E+00  0.0000E+00
    -19.418  0.0000E+00  0.0000E+00  0.0000E+00  0.0000E+00
    -19.306  0.0000E+00  0.3101E-19  0.0000E+00  0.3469E-20
    -19.194  0.4246E-10  0.6252E-10  0.4751E-11  0.6995E-11
    -19.083  0.1034E-04  0.1230E-04  0.1157E-05  0.1376E-05
    -18.971  0.5285E-03  0.5452E-03  0.6029E-04  0.6237E-04
    -18.859  0.1997E-02  0.2024E-02  0.2837E-03  0.2888E-03
    -18.747  0.2870E-02  0.2882E-02  0.6048E-03  0.6112E-03
    -18.635  0.3331E-02  0.3378E-02  0.9775E-03  0.9892E-03
    -18.523  0.5505E-02  0.5534E-02  0.1593E-02  0.1608E-02
    -18.411  0.5097E-02  0.5099E-02  0.2164E-02  0.2179E-02
    -18.299  0.1142E-01  0.1158E-01  0.3442E-02  0.3474E-02
    -18.187  0.1064E-01  0.1050E-01  0.4632E-02  0.4649E-02
    -18.076  0.1451E-01  0.1483E-01  0.6255E-02  0.6308E-02
    -17.964  0.1778E-01  0.1758E-01  0.8244E-02  0.8275E-02
    -17.852  0.1955E-01  0.1982E-01  0.1043E-01  0.1049E-01
    -17.740  0.2485E-01  0.2476E-01  0.1321E-01  0.1326E-01
    -17.628  0.2385E-01  0.2391E-01  0.1588E-01  0.1594E-01
    -17.516  0.3167E-01  0.3193E-01  0.1942E-01  0.1951E-01
    -17.404  0.3344E-01  0.3334E-01  0.2316E-01  0.2324E-01
    -17.292  0.2746E-01  0.2726E-01  0.2624E-01  0.2629E-01
    -17.181  0.1242E-01  0.1204E-01  0.2763E-01  0.2764E-01
    -17.069  0.3111E-02  0.3031E-02  0.2798E-01  0.2798E-01
    -16.957  0.2226E-03  0.2143E-03  0.2800E-01  0.2800E-01
    -16.845  0.1096E-06  0.9914E-07  0.2800E-01  0.2800E-01
    -16.733  0.5443E-14  0.4541E-14  0.2800E-01  0.2800E-01
    -16.621  0.0000E+00  0.0000E+00  0.2800E-01  0.2800E-01
    -16.509  0.1159E-12  0.7827E-13  0.2800E-01  0.2800E-01
    -16.397  0.2068E-05  0.1663E-05  0.2800E-01  0.2800E-01
    -16.285  0.3635E-02  0.3410E-02  0.2841E-01  0.2838E-01
    -16.174  0.1465E-01  0.1444E-01  0.3005E-01  0.3000E-01
    -16.062  0.1572E-01  0.1597E-01  0.3181E-01  0.3178E-01
    -15.950  0.1740E-02  0.1929E-02  0.3200E-01  0.3200E-01
    -15.838  0.1380E-05  0.1831E-05  0.3200E-01  0.3200E-01
    -15.726  0.1779E-12  0.3009E-12  0.3200E-01  0.3200E-01
    -15.614  0.0000E+00  0.0000E+00  0.3200E-01  0.3200E-01
    -15.502  0.0000E+00  0.0000E+00  0.3200E-01  0.3200E-01
    -15.390  0.0000E+00  0.0000E+00  0.3200E-01  0.3200E-01
    -15.279  0.0000E+00  0.0000E+00  0.3200E-01  0.3200E-01
    -15.167  0.0000E+00  0.0000E+00  0.3200E-01  0.3200E-01
    -15.055  0.0000E+00  0.0000E+00  0.3200E-01  0.3200E-01
    -14.943  0.0000E+00  0.0000E+00  0.3200E-01  0.3200E-01
    -14.831  0.0000E+00  0.0000E+00  0.3200E-01  0.3200E-01
    -14.719  0.0000E+00  0.0000E+00  0.3200E-01  0.3200E-01
    -14.607  0.0000E+00  0.0000E+00  0.3200E-01  0.3200E-01
    -14.495  0.0000E+00  0.0000E+00  0.3200E-01  0.3200E-01
    -14.383  0.0000E+00  0.0000E+00  0.3200E-01  0.3200E-01
    -14.272  0.0000E+00  0.0000E+00  0.3200E-01  0.3200E-01
    -14.160  0.0000E+00  0.0000E+00  0.3200E-01  0.3200E-01
    -14.048  0.0000E+00  0.0000E+00  0.3200E-01  0.3200E-01
    -13.936  0.0000E+00  0.0000E+00  0.3200E-01  0.3200E-01
    -13.824  0.0000E+00  0.0000E+00  0.3200E-01  0.3200E-01
    -13.712  0.0000E+00  0.0000E+00  0.3200E-01  0.3200E-01
    -13.600  0.0000E+00  0.0000E+00  0.3200E-01  0.3200E-01
    -13.488  0.0000E+00  0.0000E+00  0.3200E-01  0.3200E-01
    -13.376  0.0000E+00  0.0000E+00  0.3200E-01  0.3200E-01
    -13.265  0.0000E+00  0.0000E+00  0.3200E-01  0.3200E-01
    -13.153  0.0000E+00  0.0000E+00  0.3200E-01  0.3200E-01
    -13.041  0.0000E+00  0.0000E+00  0.3200E-01  0.3200E-01
    -12.929  0.0000E+00  0.0000E+00  0.3200E-01  0.3200E-01
    -12.817  0.0000E+00  0.0000E+00  0.3200E-01  0.3200E-01
    -12.705  0.0000E+00  0.0000E+00  0.3200E-01  0.3200E-01
    -12.593  0.0000E+00  0.0000E+00  0.3200E-01  0.3200E-01
    -12.481  0.0000E+00  0.0000E+00  0.3200E-01  0.3200E-01
    -12.370  0.0000E+00  0.0000E+00  0.3200E-01  0.3200E-01
    -12.258  0.0000E+00  0.0000E+00  0.3200E-01  0.3200E-01
    -12.146  0.0000E+00  0.0000E+00  0.3200E-01  0.3200E-01
    -12.034  0.0000E+00  0.0000E+00  0.3200E-01  0.3200E-01
    -11.922  0.0000E+00  0.0000E+00  0.3200E-01  0.3200E-01
    -11.810  0.0000E+00  0.0000E+00  0.3200E-01  0.3200E-01
    -11.698  0.0000E+00  0.0000E+00  0.3200E-01  0.3200E-01
    -11.586  0.0000E+00  0.0000E+00  0.3200E-01  0.3200E-01
    -11.474  0.0000E+00  0.0000E+00  0.3200E-01  0.3200E-01
    -11.363  0.0000E+00  0.0000E+00  0.3200E-01  0.3200E-01
    -11.251  0.0000E+00  0.0000E+00  0.3200E-01  0.3200E-01
    -11.139  0.0000E+00  0.0000E+00  0.3200E-01  0.3200E-01
    -11.027  0.0000E+00  0.0000E+00  0.3200E-01  0.3200E-01
    -10.915  0.0000E+00  0.0000E+00  0.3200E-01  0.3200E-01
    -10.803  0.0000E+00  0.0000E+00  0.3200E-01  0.3200E-01
    -10.691  0.0000E+00  0.0000E+00  0.3200E-01  0.3200E-01
    -10.579  0.0000E+00  0.0000E+00  0.3200E-01  0.3200E-01
    -10.468  0.0000E+00  0.0000E+00  0.3200E-01  0.3200E-01
    -10.356  0.0000E+00  0.0000E+00  0.3200E-01  0.3200E-01
    -10.244  0.0000E+00  0.0000E+00  0.3200E-01  0.3200E-01
    -10.132  0.0000E+00  0.0000E+00  0.3200E-01  0.3200E-01
    -10.020  0.0000E+00  0.0000E+00  0.3200E-01  0.3200E-01
     -9.908  0.0000E+00  0.0000E+00  0.3200E-01  0.3200E-01
     -9.796  0.0000E+00  0.0000E+00  0.3200E-01  0.3200E-01
     -9.684  0.0000E+00  0.0000E+00  0.3200E-01  0.3200E-01
     -9.572  0.0000E+00  0.0000E+00  0.3200E-01  0.3200E-01
     -9.461  0.0000E+00  0.0000E+00  0.3200E-01  0.3200E-01
     -9.349  0.0000E+00  0.0000E+00  0.3200E-01  0.3200E-01
     -9.237  0.0000E+00  0.0000E+00  0.3200E-01  0.3200E-01
     -9.125  0.0000E+00  0.0000E+00  0.3200E-01  0.3200E-01
     -9.013  0.0000E+00  0.0000E+00  0.3200E-01  0.3200E-01
     -8.901  0.0000E+00  0.0000E+00  0.3200E-01  0.3200E-01
     -8.789  0.0000E+00  0.0000E+00  0.3200E-01  0.3200E-01
     -8.677  0.0000E+00  0.0000E+00  0.3200E-01  0.3200E-01
     -8.565  0.0000E+00  0.0000E+00  0.3200E-01  0.3200E-01
     -8.454  0.0000E+00  0.0000E+00  0.3200E-01  0.3200E-01
     -8.342  0.0000E+00  0.0000E+00  0.3200E-01  0.3200E-01
     -8.230  0.0000E+00  0.0000E+00  0.3200E-01  0.3200E-01
     -8.118  0.0000E+00  0.0000E+00  0.3200E-01  0.3200E-01
     -8.006  0.0000E+00  0.0000E+00  0.3200E-01  0.3200E-01
     -7.894  0.0000E+00  0.0000E+00  0.3200E-01  0.3200E-01
     -7.782  0.0000E+00  0.0000E+00  0.3200E-01  0.3200E-01
     -7.670  0.1939E-10  0.2396E-10  0.3200E-01  0.3200E-01
     -7.559  0.8180E-05  0.9055E-05  0.3200E-01  0.3200E-01
     -7.447  0.8444E-03  0.8598E-03  0.3210E-01  0.3210E-01
     -7.335  0.1278E-02  0.1288E-02  0.3224E-01  0.3224E-01
     -7.223  0.4361E-02  0.4375E-02  0.3273E-01  0.3273E-01
     -7.111  0.3752E-02  0.3803E-02  0.3315E-01  0.3316E-01
     -6.999  0.6798E-02  0.6782E-02  0.3391E-01  0.3392E-01
     -6.887  0.7749E-02  0.7773E-02  0.3477E-01  0.3478E-01
     -6.775  0.8491E-02  0.8444E-02  0.3572E-01  0.3573E-01
     -6.663  0.5561E-02  0.5556E-02  0.3635E-01  0.3635E-01
     -6.552  0.4943E-02  0.5004E-02  0.3690E-01  0.3691E-01
     -6.440  0.1028E-01  0.1031E-01  0.3805E-01  0.3806E-01
     -6.328  0.1195E-01  0.1201E-01  0.3939E-01  0.3941E-01
     -6.216  0.1621E-01  0.1632E-01  0.4120E-01  0.4123E-01
     -6.104  0.2836E-01  0.2853E-01  0.4437E-01  0.4443E-01
     -5.992  0.3174E-01  0.3165E-01  0.4792E-01  0.4797E-01
     -5.880  0.3118E-01  0.3126E-01  0.5141E-01  0.5146E-01
     -5.768  0.3276E-01  0.3258E-01  0.5508E-01  0.5511E-01
     -5.657  0.2060E-01  0.2063E-01  0.5738E-01  0.5742E-01
     -5.545  0.1556E-01  0.1538E-01  0.5912E-01  0.5914E-01
     -5.433  0.1190E-01  0.1195E-01  0.6046E-01  0.6048E-01
     -5.321  0.1452E-01  0.1446E-01  0.6208E-01  0.6209E-01
     -5.209  0.9798E-02  0.9818E-02  0.6318E-01  0.6319E-01
     -5.097  0.1314E-01  0.1316E-01  0.6465E-01  0.6467E-01
     -4.985  0.1063E-01  0.1065E-01  0.6584E-01  0.6586E-01
     -4.873  0.1033E-01  0.1035E-01  0.6699E-01  0.6701E-01
     -4.761  0.7507E-02  0.7432E-02  0.6783E-01  0.6785E-01
     -4.650  0.1515E-01  0.1525E-01  0.6953E-01  0.6955E-01
     -4.538  0.1176E-01  0.1166E-01  0.7084E-01  0.7086E-01
     -4.426  0.1441E-01  0.1458E-01  0.7245E-01  0.7249E-01
     -4.314  0.1617E-01  0.1612E-01  0.7426E-01  0.7429E-01
     -4.202  0.1378E-01  0.1383E-01  0.7581E-01  0.7584E-01
     -4.090  0.1281E-01  0.1277E-01  0.7724E-01  0.7727E-01
     -3.978  0.1809E-01  0.1815E-01  0.7926E-01  0.7930E-01
     -3.866  0.1765E-01  0.1764E-01  0.8124E-01  0.8127E-01
     -3.754  0.2111E-01  0.2128E-01  0.8360E-01  0.8365E-01
     -3.643  0.2371E-01  0.2353E-01  0.8625E-01  0.8628E-01
     -3.531  0.1411E-01  0.1410E-01  0.8783E-01  0.8786E-01
     -3.419  0.2415E-01  0.2443E-01  0.9053E-01  0.9060E-01
     -3.307  0.2525E-01  0.2512E-01  0.9336E-01  0.9341E-01
     -3.195  0.2531E-01  0.2542E-01  0.9619E-01  0.9625E-01
     -3.083  0.1967E-01  0.1949E-01  0.9839E-01  0.9843E-01
     -2.971  0.1712E-01  0.1717E-01  0.1003E+00  0.1004E+00
     -2.859  0.1916E-01  0.1924E-01  0.1025E+00  0.1025E+00
     -2.748  0.1712E-01  0.1701E-01  0.1044E+00  0.1044E+00
     -2.636  0.1398E-01  0.1396E-01  0.1059E+00  0.1060E+00
     -2.524  0.1438E-01  0.1430E-01  0.1075E+00  0.1076E+00
     -2.412  0.1315E-01  0.1313E-01  0.1090E+00  0.1090E+00
     -2.300  0.1061E-01  0.1056E-01  0.1102E+00  0.1102E+00
     -2.188  0.1750E-01  0.1771E-01  0.1122E+00  0.1122E+00
     -2.076  0.1128E-01  0.1107E-01  0.1134E+00  0.1134E+00
     -1.964  0.2004E-01  0.2022E-01  0.1157E+00  0.1157E+00
     -1.852  0.1372E-01  0.1343E-01  0.1172E+00  0.1172E+00
     -1.741  0.1010E-01  0.1017E-01  0.1183E+00  0.1183E+00
     -1.629  0.1248E-01  0.1254E-01  0.1197E+00  0.1197E+00
     -1.517  0.1896E-01  0.1915E-01  0.1218E+00  0.1219E+00
     -1.405  0.2196E-01  0.2192E-01  0.1243E+00  0.1243E+00
     -1.293  0.1757E-01  0.1754E-01  0.1263E+00  0.1263E+00
     -1.181  0.1167E-01  0.1150E-01  0.1276E+00  0.1276E+00
     -1.069  0.9053E-02  0.9133E-02  0.1286E+00  0.1286E+00
     -0.957  0.1270E-01  0.1273E-01  0.1300E+00  0.1300E+00
     -0.846  0.1807E-01  0.1848E-01  0.1320E+00  0.1321E+00
     -0.734  0.2519E-01  0.2498E-01  0.1348E+00  0.1349E+00
     -0.622  0.2643E-01  0.2695E-01  0.1378E+00  0.1379E+00
     -0.510  0.3430E-01  0.3379E-01  0.1416E+00  0.1417E+00
     -0.398  0.2521E-01  0.2527E-01  0.1445E+00  0.1445E+00
     -0.286  0.2276E-01  0.2267E-01  0.1470E+00  0.1471E+00
     -0.174  0.1898E-01  0.1888E-01  0.1491E+00  0.1492E+00
     -0.062  0.1704E-01  0.1706E-01  0.1510E+00  0.1511E+00
      0.050  0.1600E-01  0.1582E-01  0.1528E+00  0.1528E+00
      0.161  0.1703E-01  0.1715E-01  0.1547E+00  0.1548E+00
      0.273  0.1513E-01  0.1518E-01  0.1564E+00  0.1565E+00
      0.385  0.1266E-01  0.1254E-01  0.1578E+00  0.1579E+00
      0.497  0.1173E-01  0.1185E-01  0.1592E+00  0.1592E+00
      0.609  0.1542E-01  0.1526E-01  0.1609E+00  0.1609E+00
      0.721  0.1675E-01  0.1695E-01  0.1628E+00  0.1628E+00
      0.833  0.1921E-01  0.1924E-01  0.1649E+00  0.1649E+00
      0.945  0.1941E-01  0.1959E-01  0.1671E+00  0.1671E+00
      1.057  0.1821E-01  0.1817E-01  0.1691E+00  0.1692E+00
      1.168  0.1921E-01  0.1941E-01  0.1713E+00  0.1713E+00
      1.280  0.1416E-01  0.1384E-01  0.1728E+00  0.1729E+00
      1.392  0.1746E-01  0.1729E-01  0.1748E+00  0.1748E+00
      1.504  0.1062E-01  0.1063E-01  0.1760E+00  0.1760E+00
      1.616  0.1163E-01  0.1155E-01  0.1773E+00  0.1773E+00
      1.728  0.1111E-01  0.1109E-01  0.1785E+00  0.1786E+00
      1.840  0.6886E-02  0.6819E-02  0.1793E+00  0.1793E+00
      1.952  0.5249E-02  0.5249E-02  0.1799E+00  0.1799E+00
      2.063  0.5997E-02  0.5915E-02  0.1806E+00  0.1806E+00
      2.175  0.4377E-02  0.4435E-02  0.1810E+00  0.1811E+00
      2.287  0.5885E-02  0.5879E-02  0.1817E+00  0.1817E+00
      2.399  0.5317E-02  0.5363E-02  0.1823E+00  0.1823E+00
      2.511  0.9548E-02  0.9517E-02  0.1834E+00  0.1834E+00
      2.623  0.8385E-02  0.8368E-02  0.1843E+00  0.1843E+00
      2.735  0.3783E-02  0.3722E-02  0.1847E+00  0.1847E+00
      2.847  0.4845E-02  0.4927E-02  0.1853E+00  0.1853E+00
      2.959  0.7356E-02  0.7378E-02  0.1861E+00  0.1861E+00
      3.070  0.7303E-02  0.7268E-02  0.1869E+00  0.1869E+00
      3.182  0.6328E-02  0.6309E-02  0.1876E+00  0.1876E+00
      3.294  0.7423E-02  0.7533E-02  0.1885E+00  0.1885E+00
      3.406  0.1628E-01  0.1621E-01  0.1903E+00  0.1903E+00
      3.518  0.5939E-02  0.5949E-02  0.1909E+00  0.1910E+00
      3.630  0.9304E-02  0.9386E-02  0.1920E+00  0.1920E+00
      3.742  0.1808E-01  0.1798E-01  0.1940E+00  0.1940E+00
      3.854  0.7838E-02  0.7798E-02  0.1949E+00  0.1949E+00
      3.965  0.7442E-02  0.7508E-02  0.1957E+00  0.1957E+00
      4.077  0.8421E-02  0.8439E-02  0.1967E+00  0.1967E+00
      4.189  0.1241E-01  0.1245E-01  0.1980E+00  0.1981E+00
      4.301  0.1087E-01  0.1083E-01  0.1993E+00  0.1993E+00
      4.413  0.1589E-01  0.1591E-01  0.2010E+00  0.2011E+00
      4.525  0.1763E-01  0.1760E-01  0.2030E+00  0.2030E+00
      4.637  0.1561E-01  0.1563E-01  0.2048E+00  0.2048E+00
      4.749  0.6952E-02  0.6865E-02  0.2055E+00  0.2055E+00
      4.861  0.1118E-01  0.1118E-01  0.2068E+00  0.2068E+00
      4.972  0.4353E-02  0.4272E-02  0.2073E+00  0.2073E+00
      5.084  0.1822E-02  0.1855E-02  0.2075E+00  0.2075E+00
      5.196  0.3173E-02  0.3181E-02  0.2078E+00  0.2078E+00
      5.308  0.1084E-02  0.1038E-02  0.2079E+00  0.2079E+00
      5.420  0.4495E-03  0.4439E-03  0.2080E+00  0.2080E+00
      5.532  0.6468E-05  0.5827E-05  0.2080E+00  0.2080E+00
      5.644  0.1527E-10  0.1222E-10  0.2080E+00  0.2080E+00
      5.756  0.0000E+00  0.0000E+00  0.2080E+00  0.2080E+00
      5.868  0.2686E-10  0.2311E-11  0.2080E+00  0.2080E+00
      5.979  0.8397E-05  0.2617E-05  0.2080E+00  0.2080E+00
      6.091  0.4618E-03  0.3967E-03  0.2081E+00  0.2080E+00
      6.203  0.6566E-03  0.5407E-03  0.2081E+00  0.2081E+00
      6.315  0.1636E-02  0.1523E-02  0.2083E+00  0.2083E+00
      6.427  0.1078E-02  0.1132E-02  0.2084E+00  0.2084E+00
      6.539  0.3177E-02  0.3145E-02  0.2088E+00  0.2088E+00
      6.651  0.1326E-02  0.1470E-02  0.2089E+00  0.2089E+00
      6.763  0.1562E-02  0.1354E-02  0.2091E+00  0.2091E+00
      6.874  0.1959E-02  0.2182E-02  0.2093E+00  0.2093E+00
      6.986  0.8175E-03  0.7564E-03  0.2094E+00  0.2094E+00
      7.098  0.1569E-02  0.1363E-02  0.2096E+00  0.2096E+00
      7.210  0.2494E-02  0.2835E-02  0.2099E+00  0.2099E+00
      7.322  0.9107E-03  0.8221E-03  0.2100E+00  0.2100E+00
      7.434  0.1634E-02  0.1248E-02  0.2102E+00  0.2101E+00
      7.546  0.1704E-02  0.1694E-02  0.2103E+00  0.2103E+00
      7.658  0.8426E-03  0.1319E-02  0.2104E+00  0.2104E+00
      7.770  0.2301E-02  0.6807E-03  0.2107E+00  0.2105E+00
      7.881  0.1612E-02  0.2634E-02  0.2109E+00  0.2108E+00
      7.993  0.1784E-02  0.1373E-02  0.2111E+00  0.2110E+00
      8.105  0.5239E-02  0.2771E-02  0.2117E+00  0.2113E+00
      8.217  0.3308E-02  0.5541E-02  0.2120E+00  0.2119E+00
      8.329  0.2237E-02  0.2318E-02  0.2123E+00  0.2122E+00
      8.441  0.1786E-02  0.1978E-02  0.2125E+00  0.2124E+00
      8.553  0.3126E-02  0.3310E-02  0.2128E+00  0.2127E+00
      8.665  0.5310E-02  0.3786E-02  0.2134E+00  0.2132E+00
      8.776  0.4502E-02  0.3733E-02  0.2139E+00  0.2136E+00
      8.888  0.4185E-02  0.4250E-02  0.2144E+00  0.2141E+00
      9.000  0.6241E-02  0.5837E-02  0.2151E+00  0.2147E+00
      9.112  0.2912E-02  0.5524E-02  0.2154E+00  0.2153E+00
      9.224  0.1283E-02  0.1770E-02  0.2156E+00  0.2155E+00
      9.336  0.4491E-02  0.3315E-02  0.2161E+00  0.2159E+00
      9.448  0.4551E-02  0.4082E-02  0.2166E+00  0.2164E+00
      9.560  0.4291E-02  0.5245E-02  0.2171E+00  0.2169E+00
      9.672  0.2382E-02  0.2535E-02  0.2173E+00  0.2172E+00
      9.783  0.5633E-02  0.2797E-02  0.2180E+00  0.2175E+00
      9.895  0.5836E-02  0.5630E-02  0.2186E+00  0.2182E+00
     10.007  0.6931E-02  0.6429E-02  0.2194E+00  0.2189E+00
     10.119  0.6950E-02  0.9131E-02  0.2202E+00  0.2199E+00
     10.231  0.4017E-02  0.4633E-02  0.2206E+00  0.2204E+00
     10.343  0.8842E-02  0.7020E-02  0.2216E+00  0.2212E+00
     10.455  0.7038E-02  0.8892E-02  0.2224E+00  0.2222E+00
     10.567  0.8053E-02  0.6185E-02  0.2233E+00  0.2229E+00
     10.679  0.6596E-02  0.7000E-02  0.2240E+00  0.2237E+00
     10.790  0.7367E-02  0.8578E-02  0.2249E+00  0.2246E+00
     10.902  0.9646E-02  0.9196E-02  0.2259E+00  0.2257E+00
     11.014  0.6235E-02  0.6555E-02  0.2266E+00  0.2264E+00
     11.126  0.5575E-02  0.5470E-02  0.2273E+00  0.2270E+00
     11.238  0.3111E-02  0.5028E-02  0.2276E+00  0.2276E+00
     11.350  0.1273E-02  0.1216E-02  0.2277E+00  0.2277E+00
     11.462  0.1957E-02  0.9341E-03  0.2280E+00  0.2278E+00
     11.574  0.3178E-03  0.1575E-02  0.2280E+00  0.2280E+00
     11.685  0.1628E-06  0.2073E-04  0.2280E+00  0.2280E+00
     11.797  0.1002E-13  0.7407E-10  0.2280E+00  0.2280E+00
     11.909  0.0000E+00  0.0000E+00  0.2280E+00  0.2280E+00
     12.021  0.0000E+00  0.0000E+00  0.2280E+00  0.2280E+00
     12.133  0.0000E+00  0.0000E+00  0.2280E+00  0.2280E+00
     12.245  0.0000E+00  0.0000E+00  0.2280E+00  0.2280E+00
     12.357  0.0000E+00  0.0000E+00  0.2280E+00  0.2280E+00
     12.469  0.0000E+00  0.0000E+00  0.2280E+00  0.2280E+00
     12.581  0.0000E+00  0.0000E+00  0.2280E+00  0.2280E+00
     12.692  0.0000E+00  0.0000E+00  0.2280E+00  0.2280E+00
     12.804  0.0000E+00  0.0000E+00  0.2280E+00  0.2280E+00
     12.916  0.0000E+00  0.0000E+00  0.2280E+00  0.2280E+00
     13.028  0.0000E+00  0.0000E+00  0.2280E+00  0.2280E+00
