 running on   24 total cores
 distrk:  each k-point on   24 cores,    1 groups
 distr:  one band on    6 cores,    4 groups
 using from now: INCAR     
vasp.5.4.1 08Jul2015 (build Apr 24 2014 00:09:29) complex standard with constrain (TS)    
 POSCAR found type information on POSCAR  O  Rh
 POSCAR found :  2 types and      48 ions
 scaLAPACK will be used
 LDA part: xc-table for Pade appr. of Perdew
 POSCAR, INCAR and KPOINTS ok, starting setup
 WARNING: small aliasing (wrap around) errors must be expected
 FFT: planning ...
 WAVECAR not read
 entering main loop
       N       E                     dE             d eps       ncg     rms          rms(c)
DAV:   1     0.278544399124E+04    0.27854E+04   -0.16508E+05  9128   0.132E+03
DAV:   2    -0.557773132423E+02   -0.28412E+04   -0.25994E+04 10520   0.334E+02
DAV:   3    -0.365955422307E+03   -0.31018E+03   -0.30129E+03  9864   0.116E+02
DAV:   4    -0.373076272701E+03   -0.71209E+01   -0.70867E+01 10456   0.185E+01
DAV:   5    -0.373232709786E+03   -0.15644E+00   -0.15623E+00 10424   0.251E+00    0.124E+02
RMM:   6    -0.291343110748E+03    0.81890E+02   -0.46290E+02  9120   0.398E+01    0.839E+01
RMM:   7    -0.310583958128E+03   -0.19241E+02   -0.15747E+02  9120   0.212E+01    0.672E+01
RMM:   8    -0.321559438280E+03   -0.10975E+02   -0.35718E+01  9120   0.109E+01    0.922E+01
RMM:   9    -0.266272146355E+03    0.55287E+02   -0.42993E+01  9120   0.117E+01    0.267E+01
RMM:  10    -0.270806101587E+03   -0.45340E+01   -0.17370E+01  9120   0.735E+00    0.372E+01
RMM:  11    -0.262963562939E+03    0.78425E+01   -0.39650E+00  9120   0.399E+00    0.187E+01
RMM:  12    -0.269002807900E+03   -0.60392E+01   -0.23907E+00  9120   0.314E+00    0.170E+01
RMM:  13    -0.275237793958E+03   -0.62350E+01   -0.14762E+00  9120   0.249E+00    0.194E+01
RMM:  14    -0.282720296723E+03   -0.74825E+01   -0.44481E+00  9120   0.421E+00    0.110E+01
RMM:  15    -0.294806880088E+03   -0.12087E+02   -0.82372E+00  9120   0.516E+00    0.114E+01
RMM:  16    -0.299293709880E+03   -0.44868E+01   -0.35461E+00  9120   0.316E+00    0.920E+00
RMM:  17    -0.304227333026E+03   -0.49336E+01   -0.41821E+00  9120   0.330E+00    0.722E+00
RMM:  18    -0.304975817341E+03   -0.74848E+00   -0.47742E-01  9120   0.121E+00    0.638E+00
RMM:  19    -0.305306146959E+03   -0.33033E+00   -0.14250E-01  9120   0.689E-01    0.521E+00
RMM:  20    -0.306377226440E+03   -0.10711E+01   -0.39333E-01  9120   0.102E+00    0.445E+00
RMM:  21    -0.306895224765E+03   -0.51800E+00   -0.22038E-01  9121   0.764E-01    0.345E+00
RMM:  22    -0.307164865048E+03   -0.26964E+00   -0.83126E-02  9120   0.506E-01    0.333E+00
RMM:  23    -0.307276707325E+03   -0.11184E+00   -0.37127E-02  9120   0.369E-01    0.301E+00
RMM:  24    -0.307506208192E+03   -0.22950E+00   -0.78836E-02  9120   0.523E-01    0.210E+00
RMM:  25    -0.307669627172E+03   -0.16342E+00   -0.78720E-02  9120   0.537E-01    0.153E+00
RMM:  26    -0.307690883491E+03   -0.21256E-01   -0.25831E-02  9120   0.299E-01    0.148E+00
RMM:  27    -0.307700267212E+03   -0.93837E-02   -0.12134E-02  9120   0.212E-01    0.101E+00
RMM:  28    -0.307689759616E+03    0.10508E-01   -0.66703E-03  9119   0.154E-01    0.926E-01
RMM:  29    -0.307679946167E+03    0.98134E-02   -0.57491E-03  9120   0.141E-01    0.800E-01
RMM:  30    -0.307689177188E+03   -0.92310E-02   -0.31992E-03  9087   0.105E-01    0.385E-01
RMM:  31    -0.307698201298E+03   -0.90241E-02   -0.11440E-03  8631   0.628E-02    0.269E-01
RMM:  32    -0.307706558841E+03   -0.83575E-02   -0.55906E-04  7662   0.435E-02    0.150E-01
RMM:  33    -0.307721056216E+03   -0.14497E-01   -0.26350E-04  6065   0.301E-02    0.104E-01
RMM:  34    -0.307729251453E+03   -0.81952E-02   -0.14030E-04  5635   0.213E-02    0.860E-02
RMM:  35    -0.307737476109E+03   -0.82247E-02   -0.13386E-04  5654   0.193E-02    0.447E-02
RMM:  36    -0.307741265821E+03   -0.37897E-02   -0.52049E-05  5317   0.120E-02    0.430E-02
RMM:  37    -0.307743670730E+03   -0.24049E-02   -0.32065E-05  5075   0.938E-03    0.251E-02
RMM:  38    -0.307746802876E+03   -0.31321E-02   -0.61565E-05  5352   0.110E-02    0.215E-02
RMM:  39    -0.307748292569E+03   -0.14897E-02   -0.28970E-05  4165   0.747E-03    0.186E-02
RMM:  40    -0.307748898857E+03   -0.60629E-03   -0.24592E-05  3929   0.655E-03    0.131E-02
RMM:  41    -0.307748947584E+03   -0.48727E-04   -0.26343E-05  4366   0.727E-03
 A1 parameter for BJ-Damping is not reasonable. Taking default.
   1 F= -.31691184E+03 E0= -.31688824E+03  d E =-.316912E+03  mag=    -0.1869
 curvature:   0.00 expect dE= 0.000E+00 dE for cont linesearch  0.000E+00
 trial: gam= 0.00000 g(F)=  0.834E-01 g(S)=  0.000E+00 ort = 0.000E+00 (trialstep = 0.100E+01)
 search vector abs. value=  0.834E-01
 bond charge predicted
       N       E                     dE             d eps       ncg     rms          rms(c)
DAV:   1    -0.307818141437E+03   -0.69243E-01   -0.38014E+00  9520   0.359E+00    0.668E-01
RMM:   2    -0.307835447626E+03   -0.17306E-01   -0.63514E-02  9023   0.525E-01    0.159E+00
RMM:   3    -0.307824401971E+03    0.11046E-01   -0.15253E-03  8567   0.793E-02    0.830E-01
RMM:   4    -0.307829860801E+03   -0.54588E-02   -0.23373E-03  8740   0.851E-02    0.126E+00
RMM:   5    -0.307828177064E+03    0.16837E-02   -0.40685E-03  9065   0.116E-01    0.107E+00
RMM:   6    -0.307823633450E+03    0.45436E-02   -0.20328E-03  8651   0.824E-02    0.592E-01
RMM:   7    -0.307821681051E+03    0.19524E-02   -0.15754E-03  8392   0.692E-02    0.222E-01
RMM:   8    -0.307821494851E+03    0.18620E-03   -0.35292E-04  6910   0.370E-02    0.165E-01
RMM:   9    -0.307821314775E+03    0.18008E-03   -0.11361E-04  5031   0.209E-02    0.809E-02
RMM:  10    -0.307821280776E+03    0.33999E-04   -0.30506E-05  4707   0.111E-02
 A1 parameter for BJ-Damping is not reasonable. Taking default.
   2 F= -.31698565E+03 E0= -.31696166E+03  d E =-.738105E-01  mag=    -0.1886
 ZBRENT: can't locate minimum, use default step
 trial-energy change:   -0.073810  1 .order   -0.074080   -0.083363   -0.064797
 step:   4.0000(harm=  4.4901)  dis= 0.02385  next Energy=  -317.098990 (dE=-0.187E+00)
 bond charge predicted
       N       E                     dE             d eps       ncg     rms          rms(c)
DAV:   1    -0.307890440403E+03   -0.69126E-01   -0.34287E+01  9200   0.107E+01    0.219E+00
RMM:   2    -0.308041979806E+03   -0.15154E+00   -0.58838E-01  9120   0.158E+00    0.464E+00
RMM:   3    -0.307947235078E+03    0.94745E-01   -0.14083E-02  9120   0.235E-01    0.253E+00
RMM:   4    -0.307999098001E+03   -0.51863E-01   -0.25645E-02  9120   0.278E-01    0.372E+00
RMM:   5    -0.307951157561E+03    0.47940E-01   -0.40854E-02  9120   0.363E-01    0.210E+00
RMM:   6    -0.307937868788E+03    0.13289E-01   -0.17466E-02  9120   0.236E-01    0.158E+00
RMM:   7    -0.307926993235E+03    0.10876E-01   -0.85339E-03  9120   0.160E-01    0.878E-01
RMM:   8    -0.307923300908E+03    0.36923E-02   -0.31005E-03  8963   0.108E-01    0.465E-01
RMM:   9    -0.307922072911E+03    0.12280E-02   -0.10167E-03  8282   0.585E-02    0.255E-01
RMM:  10    -0.307921877105E+03    0.19581E-03   -0.24338E-04  5991   0.292E-02    0.164E-01
RMM:  11    -0.307921855622E+03    0.21483E-04   -0.18783E-04  5648   0.258E-02
 A1 parameter for BJ-Damping is not reasonable. Taking default.
   3 F= -.31709058E+03 E0= -.31706717E+03  d E =-.178742E+00  mag=    -0.1795
 curvature:  -2.20 expect dE=-0.462E-01 dE for cont linesearch -0.103E-03
 trial: gam= 0.22798 g(F)=  0.210E-01 g(S)=  0.000E+00 ort = 0.198E-02 (trialstep = 0.160E+01)
 search vector abs. value=  0.262E-01
 bond charge predicted
       N       E                     dE             d eps       ncg     rms          rms(c)
DAV:   1    -0.307945939345E+03   -0.24062E-01   -0.32760E+00  9304   0.385E+00    0.502E-01
RMM:   2    -0.307983702668E+03   -0.37763E-01   -0.70374E-02  9090   0.517E-01    0.214E+00
RMM:   3    -0.307953786411E+03    0.29916E-01   -0.37540E-03  8981   0.124E-01    0.881E-01
RMM:   4    -0.307951245151E+03    0.25413E-02   -0.15241E-03  8500   0.828E-02    0.369E-01
RMM:   5    -0.307952665292E+03   -0.14201E-02   -0.14317E-03  8614   0.689E-02    0.587E-01
RMM:   6    -0.307950926960E+03    0.17383E-02   -0.89785E-04  8314   0.558E-02    0.336E-01
RMM:   7    -0.307950792205E+03    0.13476E-03   -0.70418E-04  8073   0.487E-02    0.226E-01
RMM:   8    -0.307950547593E+03    0.24461E-03   -0.32595E-04  6743   0.323E-02    0.131E-01
RMM:   9    -0.307950476271E+03    0.71322E-04   -0.11686E-04  5084   0.211E-02
 A1 parameter for BJ-Damping is not reasonable. Taking default.
   4 F= -.31712024E+03 E0= -.31709702E+03  d E =-.296641E-01  mag=    -0.1725
 trial-energy change:   -0.029664  1 .order   -0.029510   -0.034290   -0.024731
 step:   5.7394(harm=  5.7394)  dis= 0.02841  next Energy=  -317.152081 (dE=-0.615E-01)
 bond charge predicted
       N       E                     dE             d eps       ncg     rms          rms(c)
DAV:   1    -0.307948129909E+03    0.24177E-02   -0.21867E+01  9136   0.993E+00    0.128E+00
RMM:   2    -0.308167552347E+03   -0.21942E+00   -0.46085E-01  9120   0.131E+00    0.541E+00
RMM:   3    -0.307998196991E+03    0.16936E+00   -0.22725E-02  9120   0.299E-01    0.200E+00
RMM:   4    -0.307987140025E+03    0.11057E-01   -0.91317E-03  9120   0.198E-01    0.111E+00
RMM:   5    -0.307990536192E+03   -0.33962E-02   -0.10120E-02  9118   0.180E-01    0.134E+00
RMM:   6    -0.307983265673E+03    0.72705E-02   -0.58220E-03  9079   0.141E-01    0.987E-01
RMM:   7    -0.307979798611E+03    0.34671E-02   -0.40402E-03  9067   0.118E-01    0.458E-01
RMM:   8    -0.307979336643E+03    0.46197E-03   -0.22376E-03  8840   0.851E-02    0.381E-01
RMM:   9    -0.307978380848E+03    0.95579E-03   -0.75000E-04  8097   0.493E-02    0.104E-01
RMM:  10    -0.307978355774E+03    0.25073E-04   -0.11765E-04  5204   0.209E-02
 A1 parameter for BJ-Damping is not reasonable. Taking default.
   5 F= -.31715080E+03 E0= -.31712709E+03  d E =-.602163E-01  mag=    -0.1598
 curvature:  -3.51 expect dE=-0.328E-01 dE for cont linesearch -0.692E-04
 trial: gam= 0.49541 g(F)=  0.933E-02 g(S)=  0.000E+00 ort =-0.719E-03 (trialstep = 0.243E+01)
 search vector abs. value=  0.151E-01
 bond charge predicted
       N       E                     dE             d eps       ncg     rms          rms(c)
DAV:   1    -0.307990148810E+03   -0.11768E-01   -0.44916E+00  9296   0.443E+00    0.541E-01
RMM:   2    -0.308021402088E+03   -0.31253E-01   -0.98752E-02  9059   0.609E-01    0.194E+00
RMM:   3    -0.308000779120E+03    0.20623E-01   -0.29042E-03  8945   0.108E-01    0.882E-01
RMM:   4    -0.307999472776E+03    0.13063E-02   -0.17831E-03  8576   0.812E-02    0.734E-01
RMM:   5    -0.308002080993E+03   -0.26082E-02   -0.20398E-03  8856   0.816E-02    0.935E-01
RMM:   6    -0.307997824746E+03    0.42562E-02   -0.11361E-03  8363   0.615E-02    0.457E-01
RMM:   7    -0.307997171545E+03    0.65320E-03   -0.11236E-03  8210   0.603E-02    0.221E-01
RMM:   8    -0.307996914329E+03    0.25722E-03   -0.45260E-04  6746   0.365E-02    0.139E-01
RMM:   9    -0.307996820115E+03    0.94214E-04   -0.82626E-05  4949   0.187E-02
 A1 parameter for BJ-Damping is not reasonable. Taking default.
   6 F= -.31716638E+03 E0= -.31714211E+03  d E =-.155824E-01  mag=    -0.1510
 trial-energy change:   -0.015582  1 .order   -0.015205   -0.021795   -0.008614
 step:   4.0146(harm=  4.0146)  dis= 0.01300  next Energy=  -317.168816 (dE=-0.180E-01)
 bond charge predicted
       N       E                     dE             d eps       ncg     rms          rms(c)
DAV:   1    -0.307998861169E+03   -0.19468E-02   -0.19169E+00  9216   0.289E+00    0.358E-01
RMM:   2    -0.308008057651E+03   -0.91965E-02   -0.41845E-02  9024   0.398E-01    0.994E-01
RMM:   3    -0.308003470278E+03    0.45874E-02   -0.11318E-03  8341   0.662E-02    0.554E-01
RMM:   4    -0.308003380796E+03    0.89482E-04   -0.76551E-04  7902   0.513E-02
 A1 parameter for BJ-Damping is not reasonable. Taking default.
   7 F= -.31717105E+03 E0= -.31714665E+03  d E =-.202563E-01  mag=    -0.1482
 curvature:  -3.37 expect dE=-0.896E-02 dE for cont linesearch -0.245E-04
 trial: gam= 0.16362 g(F)=  0.266E-02 g(S)=  0.000E+00 ort = 0.331E-03 (trialstep = 0.275E+01)
 search vector abs. value=  0.317E-02
 bond charge predicted
       N       E                     dE             d eps       ncg     rms          rms(c)
DAV:   1    -0.308007967822E+03   -0.44975E-02   -0.11967E+00  9252   0.229E+00    0.600E-01
RMM:   2    -0.308063357806E+03   -0.55390E-01   -0.39648E-02  9120   0.389E-01    0.278E+00
RMM:   3    -0.308013372864E+03    0.49985E-01   -0.10077E-02  9120   0.189E-01    0.913E-01
RMM:   4    -0.308009514515E+03    0.38583E-02   -0.93140E-04  8301   0.797E-02    0.390E-01
RMM:   5    -0.308010425923E+03   -0.91141E-03   -0.13755E-03  8584   0.687E-02    0.563E-01
RMM:   6    -0.308008980535E+03    0.14454E-02   -0.96570E-04  8007   0.570E-02    0.292E-01
RMM:   7    -0.308008615428E+03    0.36511E-03   -0.47854E-04  7066   0.370E-02    0.144E-01
RMM:   8    -0.308008551045E+03    0.64383E-04   -0.16416E-04  5366   0.234E-02
 A1 parameter for BJ-Damping is not reasonable. Taking default.
   8 F= -.31717491E+03 E0= -.31715037E+03  d E =-.385988E-02  mag=    -0.1388
 trial-energy change:   -0.003860  1 .order   -0.005435   -0.007452   -0.003417
 step:   5.0704(harm=  5.0704)  dis= 0.00483  next Energy=  -317.177935 (dE=-0.688E-02)
 bond charge predicted
       N       E                     dE             d eps       ncg     rms          rms(c)
DAV:   1    -0.308009623125E+03   -0.10077E-02   -0.85878E-01  9296   0.194E+00    0.350E-01
RMM:   2    -0.308012041702E+03   -0.24186E-02   -0.18035E-02  8987   0.259E-01    0.383E-01
RMM:   3    -0.308015192737E+03   -0.31510E-02   -0.10781E-03  8369   0.586E-02    0.807E-01
RMM:   4    -0.308012141593E+03    0.30511E-02   -0.62649E-04  7876   0.508E-02    0.395E-01
RMM:   5    -0.308011770556E+03    0.37104E-03   -0.81914E-04  8104   0.535E-02    0.356E-01
RMM:   6    -0.308011437553E+03    0.33300E-03   -0.30999E-04  6648   0.341E-02    0.237E-01
RMM:   7    -0.308011203195E+03    0.23436E-03   -0.23343E-04  6003   0.293E-02    0.131E-01
RMM:   8    -0.308011154570E+03    0.48626E-04   -0.10732E-04  5063   0.204E-02
 A1 parameter for BJ-Damping is not reasonable. Taking default.
   9 F= -.31717641E+03 E0= -.31715201E+03  d E =-.535319E-02  mag=    -0.1302
 curvature:  -2.96 expect dE=-0.316E-02 dE for cont linesearch -0.145E-06
 trial: gam= 0.42454 g(F)=  0.107E-02 g(S)=  0.000E+00 ort =-0.125E-04 (trialstep = 0.321E+01)
 search vector abs. value=  0.163E-02
 bond charge predicted
       N       E                     dE             d eps       ncg     rms          rms(c)
DAV:   1    -0.308013308657E+03   -0.21055E-02   -0.86206E-01  9200   0.197E+00    0.266E-01
RMM:   2    -0.308026327119E+03   -0.13018E-01   -0.18485E-02  9009   0.266E-01    0.137E+00
RMM:   3    -0.308015670172E+03    0.10657E-01   -0.62009E-04  7782   0.565E-02    0.468E-01
RMM:   4    -0.308016913232E+03   -0.12431E-02   -0.59319E-04  7736   0.451E-02    0.658E-01
RMM:   5    -0.308015746334E+03    0.11669E-02   -0.45244E-04  7344   0.392E-02    0.447E-01
RMM:   6    -0.308015028356E+03    0.71798E-03   -0.38264E-04  6880   0.367E-02    0.268E-01
RMM:   7    -0.308014701310E+03    0.32705E-03   -0.18405E-04  5473   0.265E-02    0.106E-01
RMM:   8    -0.308014696910E+03    0.44001E-05   -0.53374E-05  4962   0.154E-02
 A1 parameter for BJ-Damping is not reasonable. Taking default.
  10 F= -.31717832E+03 E0= -.31715397E+03  d E =-.191497E-02  mag=    -0.1220
 trial-energy change:   -0.001915  1 .order   -0.001882   -0.003404   -0.000361
 step:   3.5908(harm=  3.5908)  dis= 0.00382  next Energy=  -317.178310 (dE=-0.190E-02)
 bond charge predicted
       N       E                     dE             d eps       ncg     rms          rms(c)
DAV:   1    -0.308014854776E+03   -0.15347E-03   -0.12306E-02  9540   0.236E-01    0.483E-02
RMM:   2    -0.308014971940E+03   -0.11716E-03   -0.29822E-04  5751   0.362E-02    0.122E-01
RMM:   3    -0.308014993163E+03   -0.21223E-04   -0.45529E-05  4938   0.143E-02
 A1 parameter for BJ-Damping is not reasonable. Taking default.
  11 F= -.31717842E+03 E0= -.31715412E+03  d E =-.201839E-02  mag=    -0.1200
 curvature:  -2.75 expect dE=-0.161E-02 dE for cont linesearch -0.229E-05
 trial: gam= 0.49000 g(F)=  0.583E-03 g(S)=  0.000E+00 ort =-0.367E-04 (trialstep = 0.329E+01)
 search vector abs. value=  0.938E-03
 bond charge predicted
       N       E                     dE             d eps       ncg     rms          rms(c)
DAV:   1    -0.308018053060E+03   -0.30811E-02   -0.50287E-01  9196   0.140E+00    0.198E-01
RMM:   2    -0.308019956169E+03   -0.19031E-02   -0.96037E-03  8868   0.191E-01    0.431E-01
RMM:   3    -0.308019646956E+03    0.30921E-03   -0.49547E-04  7291   0.430E-02    0.413E-01
RMM:   4    -0.308018756673E+03    0.89028E-03   -0.12985E-04  5224   0.256E-02    0.100E-01
RMM:   5    -0.308019019677E+03   -0.26300E-03   -0.21235E-04  5830   0.275E-02    0.220E-01
RMM:   6    -0.308018878270E+03    0.14141E-03   -0.10372E-04  5063   0.193E-02    0.166E-01
RMM:   7    -0.308018777226E+03    0.10104E-03   -0.95404E-05  5063   0.191E-02    0.867E-02
RMM:   8    -0.308018755815E+03    0.21412E-04   -0.43784E-05  4735   0.132E-02
 A1 parameter for BJ-Damping is not reasonable. Taking default.
  12 F= -.31717998E+03 E0= -.31715557E+03  d E =-.155391E-02  mag=    -0.1130
 trial-energy change:   -0.001554  1 .order   -0.001581   -0.001857   -0.001306
 step:  11.0636(harm= 11.0636)  dis= 0.00773  next Energy=  -317.181551 (dE=-0.313E-02)
 bond charge predicted
       N       E                     dE             d eps       ncg     rms          rms(c)
DAV:   1    -0.308021751302E+03   -0.29741E-02   -0.28129E+00  9144   0.332E+00    0.450E-01
RMM:   2    -0.308030910605E+03   -0.91593E-02   -0.53738E-02  9011   0.447E-01    0.893E-01
RMM:   3    -0.308027532031E+03    0.33786E-02   -0.27455E-03  8688   0.962E-02    0.571E-01
RMM:   4    -0.308030136995E+03   -0.26050E-02   -0.10571E-03  8343   0.589E-02    0.886E-01
RMM:   5    -0.308027037410E+03    0.30996E-02   -0.11298E-03  8266   0.651E-02    0.482E-01
RMM:   6    -0.308026331875E+03    0.70554E-03   -0.66094E-04  7980   0.494E-02    0.383E-01
RMM:   7    -0.308025667185E+03    0.66469E-03   -0.55737E-04  7211   0.420E-02    0.157E-01
RMM:   8    -0.308025601782E+03    0.65403E-04   -0.21506E-04  5771   0.271E-02
 A1 parameter for BJ-Damping is not reasonable. Taking default.
  13 F= -.31718160E+03 E0= -.31715702E+03  d E =-.317521E-02  mag=    -0.1071
 curvature:  -9.18 expect dE=-0.105E-01 dE for cont linesearch -0.863E-05
 trial: gam= 2.07011 g(F)=  0.114E-02 g(S)=  0.000E+00 ort =-0.297E-04 (trialstep = 0.902E+00)
 search vector abs. value=  0.504E-02
 bond charge predicted
       N       E                     dE             d eps       ncg     rms          rms(c)
DAV:   1    -0.308027260962E+03   -0.15938E-02   -0.20487E-01  9328   0.939E-01    0.116E-01
RMM:   2    -0.308028466118E+03   -0.12052E-02   -0.42845E-03  8746   0.126E-01    0.341E-01
RMM:   3    -0.308028032080E+03    0.43404E-03   -0.19563E-04  5528   0.284E-02    0.284E-01
RMM:   4    -0.308027635172E+03    0.39691E-03   -0.12176E-04  5120   0.237E-02    0.114E-01
RMM:   5    -0.308027637740E+03   -0.25681E-05   -0.79103E-05  5008   0.181E-02
 A1 parameter for BJ-Damping is not reasonable. Taking default.
  14 F= -.31718248E+03 E0= -.31715785E+03  d E =-.883034E-03  mag=    -0.1048
 ZBRENT: can't locate minimum, use default step
 trial-energy change:   -0.000883  1 .order   -0.000931   -0.000973   -0.000889
 step:   3.6061(harm= 10.3973)  dis= 0.00564  next Energy=  -317.187210 (dE=-0.561E-02)
 bond charge predicted
       N       E                     dE             d eps       ncg     rms          rms(c)
DAV:   1    -0.308030557651E+03   -0.29225E-02   -0.18411E+00  9128   0.281E+00    0.328E-01
RMM:   2    -0.308035280131E+03   -0.47225E-02   -0.35392E-02  9012   0.360E-01    0.509E-01
RMM:   3    -0.308035746336E+03   -0.46621E-03   -0.16625E-03  8749   0.754E-02    0.613E-01
RMM:   4    -0.308035615843E+03    0.13049E-03   -0.81613E-04  7893   0.531E-02    0.635E-01
RMM:   5    -0.308033718390E+03    0.18975E-02   -0.50578E-04  7379   0.460E-02    0.312E-01
RMM:   6    -0.308033229818E+03    0.48857E-03   -0.27329E-04  6239   0.325E-02    0.115E-01
RMM:   7    -0.308033270749E+03   -0.40932E-04   -0.29881E-04  6330   0.304E-02
 A1 parameter for BJ-Damping is not reasonable. Taking default.
  15 F= -.31718466E+03 E0= -.31715993E+03  d E =-.305858E-02  mag=    -0.1004
 curvature: -11.85 expect dE=-0.527E-02 dE for cont linesearch -0.881E-03
 ZBRENT: increasing intervall
 opt :   9.0152  next Energy=  -317.185947 (dE=-0.435E-02)
 bond charge predicted
       N       E                     dE             d eps       ncg     rms          rms(c)
DAV:   1    -0.308030647685E+03    0.25821E-02   -0.73569E+00  9120   0.560E+00    0.628E-01
RMM:   2    -0.308048269133E+03   -0.17621E-01   -0.14091E-01  9044   0.716E-01    0.891E-01
RMM:   3    -0.308045301820E+03    0.29673E-02   -0.74158E-03  9023   0.153E-01    0.777E-01
RMM:   4    -0.308049190565E+03   -0.38887E-02   -0.24509E-03  8885   0.935E-02    0.113E+00
RMM:   5    -0.308043751042E+03    0.54395E-02   -0.10157E-03  8325   0.635E-02    0.608E-01
RMM:   6    -0.308041916792E+03    0.18343E-02   -0.68817E-04  7913   0.542E-02    0.293E-01
RMM:   7    -0.308041935354E+03   -0.18563E-04   -0.92977E-04  8001   0.526E-02
 A1 parameter for BJ-Damping is not reasonable. Taking default.
  16 F= -.31718641E+03 E0= -.31716162E+03  d E =-.481400E-02  mag=    -0.0963
 curvature: -17.33 expect dE=-0.782E-02 dE for cont linesearch -0.356E-04
 ZBRENT: bracketing found
 ZBRENT: interpolating
 opt :   8.2446  next Energy=  -317.186453 (dE=-0.485E-02)
 bond charge predicted
       N       E                     dE             d eps       ncg     rms          rms(c)
DAV:   1    -0.308040487831E+03    0.14290E-02   -0.15409E-01  9520   0.826E-01    0.228E-01
RMM:   2    -0.308045120957E+03   -0.46331E-02   -0.71570E-03  9080   0.166E-01    0.818E-01
RMM:   3    -0.308040571510E+03    0.45494E-02   -0.17056E-03  8717   0.763E-02    0.137E-01
RMM:   4    -0.308040513170E+03    0.58339E-04   -0.13660E-04  5264   0.260E-02
 A1 parameter for BJ-Damping is not reasonable. Taking default.
  17 F= -.31718598E+03 E0= -.31716124E+03  d E =-.437575E-02  mag=    -0.0949
 curvature: -19.09 expect dE=-0.701E-02 dE for cont linesearch -0.171E-06
 trial: gam= 0.24850 g(F)=  0.367E-03 g(S)=  0.000E+00 ort =-0.671E-05 (trialstep = 0.237E+01)
 search vector abs. value=  0.675E-03
 bond charge predicted
       N       E                     dE             d eps       ncg     rms          rms(c)
DAV:   1    -0.308041672754E+03   -0.11012E-02   -0.19012E-01  9324   0.955E-01    0.164E-01
RMM:   2    -0.308049302494E+03   -0.76297E-02   -0.43745E-03  8989   0.137E-01    0.101E+00
RMM:   3    -0.308042376673E+03    0.69258E-02   -0.67070E-04  7956   0.530E-02    0.308E-01
RMM:   4    -0.308042189189E+03    0.18748E-03   -0.17462E-04  5520   0.353E-02    0.174E-01
RMM:   5    -0.308041989180E+03    0.20001E-03   -0.86805E-05  4968   0.200E-02    0.879E-02
RMM:   6    -0.308041984330E+03    0.48500E-05   -0.34564E-05  4755   0.122E-02
 A1 parameter for BJ-Damping is not reasonable. Taking default.
  18 F= -.31718660E+03 E0= -.31716194E+03  d E =-.622473E-03  mag=    -0.0915
 trial-energy change:   -0.000622  1 .order   -0.000684   -0.000867   -0.000501
 step:   5.6076(harm=  5.6076)  dis= 0.00319  next Energy=  -317.187001 (dE=-0.103E-02)
 reached required accuracy - stopping structural energy minimisation
