  48  48   0   0
  0.1871571E+02  0.6422040E-09  0.6362756E-09  0.2198514E-08  0.1000000E-15
  1.000000000000000E-004
  CAR 
 OsO2_suf110_2x1x4_2fix                  
     10.09621107    -21.55762655  301      1.11692403      1.00000000
    -21.558  0.0000E+00  0.0000E+00  0.0000E+00  0.0000E+00
    -21.452  0.0000E+00  0.0000E+00  0.0000E+00  0.0000E+00
    -21.347  0.0000E+00  0.0000E+00  0.0000E+00  0.0000E+00
    -21.241  0.0000E+00  0.0000E+00  0.0000E+00  0.0000E+00
    -21.136  0.0000E+00  0.0000E+00  0.0000E+00  0.0000E+00
    -21.030  0.0000E+00  0.0000E+00  0.0000E+00  0.0000E+00
    -20.925  0.0000E+00  0.0000E+00  0.0000E+00  0.0000E+00
    -20.819  0.0000E+00  0.0000E+00  0.0000E+00  0.0000E+00
    -20.714  0.0000E+00  0.0000E+00  0.0000E+00  0.0000E+00
    -20.608  0.0000E+00  0.0000E+00  0.0000E+00  0.0000E+00
    -20.502  0.0000E+00  0.0000E+00  0.0000E+00  0.0000E+00
    -20.397  0.1052E-17  0.4603E-18  0.1110E-18  0.4857E-19
    -20.291  0.3087E-09  0.1781E-09  0.3257E-10  0.1880E-10
    -20.186  0.1705E-04  0.1328E-04  0.1799E-05  0.1401E-05
    -20.080  0.5835E-03  0.5548E-03  0.6336E-04  0.5994E-04
    -19.975  0.1914E-02  0.1866E-02  0.2653E-03  0.2568E-03
    -19.869  0.3172E-02  0.3154E-02  0.6000E-03  0.5896E-03
    -19.764  0.2593E-02  0.2638E-02  0.8737E-03  0.8679E-03
    -19.658  0.3634E-02  0.3607E-02  0.1257E-02  0.1249E-02
    -19.553  0.6299E-02  0.6179E-02  0.1922E-02  0.1901E-02
    -19.447  0.5351E-02  0.5266E-02  0.2486E-02  0.2456E-02
    -19.342  0.9795E-02  0.9568E-02  0.3520E-02  0.3466E-02
    -19.236  0.1368E-01  0.1374E-01  0.4963E-02  0.4916E-02
    -19.131  0.1044E-01  0.1016E-01  0.6065E-02  0.5987E-02
    -19.025  0.1294E-01  0.1323E-01  0.7431E-02  0.7383E-02
    -18.920  0.1513E-01  0.1458E-01  0.9027E-02  0.8922E-02
    -18.814  0.2199E-01  0.1991E-01  0.1135E-01  0.1102E-01
    -18.709  0.2521E-01  0.2499E-01  0.1401E-01  0.1366E-01
    -18.603  0.1656E-01  0.1884E-01  0.1575E-01  0.1565E-01
    -18.498  0.1248E-01  0.1251E-01  0.1707E-01  0.1697E-01
    -18.392  0.2832E-01  0.2702E-01  0.2006E-01  0.1982E-01
    -18.287  0.3317E-01  0.3345E-01  0.2356E-01  0.2335E-01
    -18.181  0.2285E-01  0.2306E-01  0.2597E-01  0.2578E-01
    -18.076  0.1156E-01  0.1366E-01  0.2719E-01  0.2722E-01
    -17.970  0.5023E-02  0.4865E-02  0.2772E-01  0.2774E-01
    -17.865  0.2379E-02  0.2193E-02  0.2797E-01  0.2797E-01
    -17.759  0.6090E-02  0.3108E-03  0.2861E-01  0.2800E-01
    -17.654  0.6125E-02  0.6822E-05  0.2926E-01  0.2800E-01
    -17.548  0.4411E-02  0.3795E-02  0.2973E-01  0.2840E-01
    -17.443  0.2552E-02  0.8518E-02  0.2999E-01  0.2930E-01
    -17.337  0.5249E-04  0.5309E-02  0.3000E-01  0.2986E-01
    -17.232  0.6977E-09  0.1323E-02  0.3000E-01  0.3000E-01
    -17.126  0.2686E-13  0.3406E-05  0.3000E-01  0.3000E-01
    -17.021  0.3470E-06  0.2936E-11  0.3000E-01  0.3000E-01
    -16.915  0.1314E-02  0.1310E-10  0.3014E-01  0.3000E-01
    -16.810  0.1385E-01  0.1105E-04  0.3160E-01  0.3000E-01
    -16.704  0.3785E-02  0.4547E-02  0.3200E-01  0.3048E-01
    -16.599  0.9871E-05  0.1353E-01  0.3200E-01  0.3191E-01
    -16.493  0.1754E-10  0.8633E-03  0.3200E-01  0.3200E-01
    -16.387  0.0000E+00  0.1371E-06  0.3200E-01  0.3200E-01
    -16.282  0.0000E+00  0.6786E-14  0.3200E-01  0.3200E-01
    -16.176  0.0000E+00  0.0000E+00  0.3200E-01  0.3200E-01
    -16.071  0.0000E+00  0.0000E+00  0.3200E-01  0.3200E-01
    -15.965  0.0000E+00  0.0000E+00  0.3200E-01  0.3200E-01
    -15.860  0.0000E+00  0.0000E+00  0.3200E-01  0.3200E-01
    -15.754  0.0000E+00  0.0000E+00  0.3200E-01  0.3200E-01
    -15.649  0.0000E+00  0.0000E+00  0.3200E-01  0.3200E-01
    -15.543  0.0000E+00  0.0000E+00  0.3200E-01  0.3200E-01
    -15.438  0.0000E+00  0.0000E+00  0.3200E-01  0.3200E-01
    -15.332  0.0000E+00  0.0000E+00  0.3200E-01  0.3200E-01
    -15.227  0.0000E+00  0.0000E+00  0.3200E-01  0.3200E-01
    -15.121  0.0000E+00  0.0000E+00  0.3200E-01  0.3200E-01
    -15.016  0.0000E+00  0.0000E+00  0.3200E-01  0.3200E-01
    -14.910  0.0000E+00  0.0000E+00  0.3200E-01  0.3200E-01
    -14.805  0.0000E+00  0.0000E+00  0.3200E-01  0.3200E-01
    -14.699  0.0000E+00  0.0000E+00  0.3200E-01  0.3200E-01
    -14.594  0.0000E+00  0.0000E+00  0.3200E-01  0.3200E-01
    -14.488  0.0000E+00  0.0000E+00  0.3200E-01  0.3200E-01
    -14.383  0.0000E+00  0.0000E+00  0.3200E-01  0.3200E-01
    -14.277  0.0000E+00  0.0000E+00  0.3200E-01  0.3200E-01
    -14.172  0.0000E+00  0.0000E+00  0.3200E-01  0.3200E-01
    -14.066  0.0000E+00  0.0000E+00  0.3200E-01  0.3200E-01
    -13.961  0.0000E+00  0.0000E+00  0.3200E-01  0.3200E-01
    -13.855  0.0000E+00  0.0000E+00  0.3200E-01  0.3200E-01
    -13.750  0.0000E+00  0.0000E+00  0.3200E-01  0.3200E-01
    -13.644  0.0000E+00  0.0000E+00  0.3200E-01  0.3200E-01
    -13.539  0.0000E+00  0.0000E+00  0.3200E-01  0.3200E-01
    -13.433  0.0000E+00  0.0000E+00  0.3200E-01  0.3200E-01
    -13.328  0.0000E+00  0.0000E+00  0.3200E-01  0.3200E-01
    -13.222  0.0000E+00  0.0000E+00  0.3200E-01  0.3200E-01
    -13.117  0.0000E+00  0.0000E+00  0.3200E-01  0.3200E-01
    -13.011  0.0000E+00  0.0000E+00  0.3200E-01  0.3200E-01
    -12.906  0.0000E+00  0.0000E+00  0.3200E-01  0.3200E-01
    -12.800  0.0000E+00  0.0000E+00  0.3200E-01  0.3200E-01
    -12.695  0.0000E+00  0.0000E+00  0.3200E-01  0.3200E-01
    -12.589  0.0000E+00  0.0000E+00  0.3200E-01  0.3200E-01
    -12.484  0.0000E+00  0.0000E+00  0.3200E-01  0.3200E-01
    -12.378  0.0000E+00  0.0000E+00  0.3200E-01  0.3200E-01
    -12.273  0.0000E+00  0.0000E+00  0.3200E-01  0.3200E-01
    -12.167  0.0000E+00  0.0000E+00  0.3200E-01  0.3200E-01
    -12.061  0.0000E+00  0.0000E+00  0.3200E-01  0.3200E-01
    -11.956  0.0000E+00  0.0000E+00  0.3200E-01  0.3200E-01
    -11.850  0.0000E+00  0.0000E+00  0.3200E-01  0.3200E-01
    -11.745  0.0000E+00  0.0000E+00  0.3200E-01  0.3200E-01
    -11.639  0.0000E+00  0.0000E+00  0.3200E-01  0.3200E-01
    -11.534  0.0000E+00  0.0000E+00  0.3200E-01  0.3200E-01
    -11.428  0.0000E+00  0.0000E+00  0.3200E-01  0.3200E-01
    -11.323  0.0000E+00  0.0000E+00  0.3200E-01  0.3200E-01
    -11.217  0.0000E+00  0.0000E+00  0.3200E-01  0.3200E-01
    -11.112  0.0000E+00  0.0000E+00  0.3200E-01  0.3200E-01
    -11.006  0.0000E+00  0.0000E+00  0.3200E-01  0.3200E-01
    -10.901  0.0000E+00  0.0000E+00  0.3200E-01  0.3200E-01
    -10.795  0.0000E+00  0.0000E+00  0.3200E-01  0.3200E-01
    -10.690  0.0000E+00  0.0000E+00  0.3200E-01  0.3200E-01
    -10.584  0.0000E+00  0.0000E+00  0.3200E-01  0.3200E-01
    -10.479  0.0000E+00  0.0000E+00  0.3200E-01  0.3200E-01
    -10.373  0.0000E+00  0.0000E+00  0.3200E-01  0.3200E-01
    -10.268  0.0000E+00  0.0000E+00  0.3200E-01  0.3200E-01
    -10.162  0.0000E+00  0.0000E+00  0.3200E-01  0.3200E-01
    -10.057  0.0000E+00  0.0000E+00  0.3200E-01  0.3200E-01
     -9.951  0.0000E+00  0.0000E+00  0.3200E-01  0.3200E-01
     -9.846  0.0000E+00  0.0000E+00  0.3200E-01  0.3200E-01
     -9.740  0.0000E+00  0.0000E+00  0.3200E-01  0.3200E-01
     -9.635  0.0000E+00  0.0000E+00  0.3200E-01  0.3200E-01
     -9.529  0.0000E+00  0.0000E+00  0.3200E-01  0.3200E-01
     -9.424  0.0000E+00  0.0000E+00  0.3200E-01  0.3200E-01
     -9.318  0.0000E+00  0.0000E+00  0.3200E-01  0.3200E-01
     -9.213  0.0000E+00  0.0000E+00  0.3200E-01  0.3200E-01
     -9.107  0.0000E+00  0.0000E+00  0.3200E-01  0.3200E-01
     -9.002  0.0000E+00  0.0000E+00  0.3200E-01  0.3200E-01
     -8.896  0.0000E+00  0.0000E+00  0.3200E-01  0.3200E-01
     -8.791  0.0000E+00  0.0000E+00  0.3200E-01  0.3200E-01
     -8.685  0.0000E+00  0.0000E+00  0.3200E-01  0.3200E-01
     -8.580  0.3545E-11  0.3011E-12  0.3200E-01  0.3200E-01
     -8.474  0.1983E-05  0.5400E-06  0.3200E-01  0.3200E-01
     -8.369  0.4714E-03  0.3384E-03  0.3205E-01  0.3204E-01
     -8.263  0.1770E-02  0.1700E-02  0.3224E-01  0.3222E-01
     -8.158  0.4050E-02  0.3793E-02  0.3266E-01  0.3262E-01
     -8.052  0.4792E-02  0.4823E-02  0.3317E-01  0.3312E-01
     -7.946  0.4531E-02  0.4797E-02  0.3365E-01  0.3363E-01
     -7.841  0.2396E-02  0.2189E-02  0.3390E-01  0.3386E-01
     -7.735  0.7788E-02  0.7417E-02  0.3472E-01  0.3464E-01
     -7.630  0.9757E-02  0.9449E-02  0.3575E-01  0.3564E-01
     -7.524  0.9295E-02  0.1025E-01  0.3673E-01  0.3672E-01
     -7.419  0.1840E-02  0.1295E-02  0.3693E-01  0.3686E-01
     -7.313  0.7484E-02  0.7136E-02  0.3772E-01  0.3761E-01
     -7.208  0.1254E-01  0.1251E-01  0.3904E-01  0.3893E-01
     -7.102  0.1071E-01  0.1059E-01  0.4017E-01  0.4005E-01
     -6.997  0.1093E-01  0.1060E-01  0.4132E-01  0.4117E-01
     -6.891  0.1691E-01  0.1444E-01  0.4311E-01  0.4269E-01
     -6.786  0.2791E-01  0.2298E-01  0.4605E-01  0.4511E-01
     -6.680  0.1991E-01  0.2091E-01  0.4815E-01  0.4732E-01
     -6.575  0.2412E-01  0.2761E-01  0.5070E-01  0.5023E-01
     -6.469  0.3413E-01  0.3288E-01  0.5430E-01  0.5370E-01
     -6.364  0.2954E-01  0.2989E-01  0.5742E-01  0.5686E-01
     -6.258  0.2321E-01  0.2464E-01  0.5987E-01  0.5946E-01
     -6.153  0.1316E-01  0.1325E-01  0.6125E-01  0.6086E-01
     -6.047  0.1868E-01  0.1790E-01  0.6323E-01  0.6274E-01
     -5.942  0.1214E-01  0.1038E-01  0.6451E-01  0.6384E-01
     -5.836  0.1070E-01  0.1034E-01  0.6564E-01  0.6493E-01
     -5.731  0.6990E-02  0.1116E-01  0.6637E-01  0.6611E-01
     -5.625  0.9792E-02  0.8306E-02  0.6741E-01  0.6698E-01
     -5.520  0.1007E-01  0.1102E-01  0.6847E-01  0.6815E-01
     -5.414  0.1196E-01  0.1166E-01  0.6973E-01  0.6938E-01
     -5.309  0.1440E-01  0.1399E-01  0.7125E-01  0.7085E-01
     -5.203  0.1382E-01  0.1411E-01  0.7271E-01  0.7234E-01
     -5.098  0.1050E-01  0.1009E-01  0.7382E-01  0.7341E-01
     -4.992  0.1327E-01  0.1279E-01  0.7522E-01  0.7476E-01
     -4.887  0.1070E-01  0.1249E-01  0.7635E-01  0.7607E-01
     -4.781  0.1618E-01  0.1355E-01  0.7805E-01  0.7750E-01
     -4.676  0.1493E-01  0.1589E-01  0.7963E-01  0.7918E-01
     -4.570  0.1145E-01  0.1228E-01  0.8084E-01  0.8048E-01
     -4.465  0.2167E-01  0.1878E-01  0.8312E-01  0.8246E-01
     -4.359  0.1975E-01  0.2166E-01  0.8521E-01  0.8474E-01
     -4.254  0.1736E-01  0.1707E-01  0.8704E-01  0.8654E-01
     -4.148  0.1549E-01  0.1551E-01  0.8867E-01  0.8818E-01
     -4.043  0.2504E-01  0.2139E-01  0.9132E-01  0.9044E-01
     -3.937  0.2424E-01  0.2725E-01  0.9387E-01  0.9331E-01
     -3.831  0.2012E-01  0.2125E-01  0.9600E-01  0.9556E-01
     -3.726  0.2413E-01  0.2396E-01  0.9854E-01  0.9808E-01
     -3.620  0.2047E-01  0.2088E-01  0.1007E+00  0.1003E+00
     -3.515  0.1472E-01  0.1369E-01  0.1023E+00  0.1017E+00
     -3.409  0.1798E-01  0.1722E-01  0.1042E+00  0.1035E+00
     -3.304  0.1481E-01  0.1785E-01  0.1057E+00  0.1054E+00
     -3.198  0.1346E-01  0.1163E-01  0.1071E+00  0.1067E+00
     -3.093  0.1668E-01  0.1324E-01  0.1089E+00  0.1081E+00
     -2.987  0.1576E-01  0.1721E-01  0.1106E+00  0.1099E+00
     -2.882  0.1489E-01  0.1532E-01  0.1121E+00  0.1115E+00
     -2.776  0.1440E-01  0.1068E-01  0.1136E+00  0.1126E+00
     -2.671  0.1806E-01  0.1788E-01  0.1156E+00  0.1145E+00
     -2.565  0.1661E-01  0.1635E-01  0.1173E+00  0.1162E+00
     -2.460  0.1112E-01  0.7650E-02  0.1185E+00  0.1170E+00
     -2.354  0.1548E-01  0.1362E-01  0.1201E+00  0.1185E+00
     -2.249  0.1463E-01  0.2258E-01  0.1217E+00  0.1209E+00
     -2.143  0.8749E-02  0.9644E-02  0.1226E+00  0.1219E+00
     -2.038  0.1021E-01  0.9222E-02  0.1237E+00  0.1228E+00
     -1.932  0.1368E-01  0.7418E-02  0.1251E+00  0.1236E+00
     -1.827  0.7390E-02  0.5939E-02  0.1259E+00  0.1243E+00
     -1.721  0.7142E-02  0.1656E-01  0.1266E+00  0.1260E+00
     -1.616  0.4908E-02  0.6803E-02  0.1272E+00  0.1267E+00
     -1.510  0.5043E-02  0.4543E-02  0.1277E+00  0.1272E+00
     -1.405  0.2367E-02  0.5374E-02  0.1279E+00  0.1278E+00
     -1.299  0.4487E-03  0.1634E-02  0.1280E+00  0.1279E+00
     -1.194  0.1815E-03  0.5174E-03  0.1280E+00  0.1280E+00
     -1.088  0.1432E-06  0.6409E-04  0.1280E+00  0.1280E+00
     -0.983  0.8094E-06  0.7222E-08  0.1280E+00  0.1280E+00
     -0.877  0.2973E-03  0.5152E-10  0.1280E+00  0.1280E+00
     -0.772  0.9670E-03  0.7655E-05  0.1281E+00  0.1280E+00
     -0.666  0.1186E-02  0.6739E-03  0.1283E+00  0.1281E+00
     -0.561  0.1238E-02  0.1496E-02  0.1284E+00  0.1282E+00
     -0.455  0.4452E-02  0.3722E-02  0.1289E+00  0.1286E+00
     -0.350  0.1226E-01  0.9734E-02  0.1302E+00  0.1296E+00
     -0.244  0.1553E-01  0.1373E-01  0.1318E+00  0.1311E+00
     -0.139  0.1087E-01  0.1153E-01  0.1329E+00  0.1323E+00
     -0.033  0.1840E-01  0.1861E-01  0.1349E+00  0.1343E+00
      0.072  0.1870E-01  0.1844E-01  0.1369E+00  0.1362E+00
      0.178  0.1908E-01  0.1476E-01  0.1389E+00  0.1378E+00
      0.284  0.2806E-01  0.2030E-01  0.1418E+00  0.1399E+00
      0.389  0.2905E-01  0.3426E-01  0.1449E+00  0.1435E+00
      0.495  0.2536E-01  0.2710E-01  0.1476E+00  0.1464E+00
      0.600  0.3176E-01  0.2547E-01  0.1509E+00  0.1491E+00
      0.706  0.2154E-01  0.1867E-01  0.1532E+00  0.1511E+00
      0.811  0.2550E-01  0.2371E-01  0.1559E+00  0.1536E+00
      0.917  0.2167E-01  0.2141E-01  0.1582E+00  0.1558E+00
      1.022  0.1783E-01  0.1986E-01  0.1601E+00  0.1579E+00
      1.128  0.1142E-01  0.1066E-01  0.1613E+00  0.1590E+00
      1.233  0.1457E-01  0.1420E-01  0.1628E+00  0.1605E+00
      1.339  0.9408E-02  0.1510E-01  0.1638E+00  0.1621E+00
      1.444  0.6900E-02  0.1177E-01  0.1645E+00  0.1634E+00
      1.550  0.1382E-01  0.1458E-01  0.1660E+00  0.1649E+00
      1.655  0.1367E-01  0.1821E-01  0.1674E+00  0.1668E+00
      1.761  0.1262E-01  0.1235E-01  0.1687E+00  0.1681E+00
      1.866  0.1008E-01  0.1313E-01  0.1698E+00  0.1695E+00
      1.972  0.1442E-01  0.1297E-01  0.1713E+00  0.1709E+00
      2.077  0.1966E-01  0.2014E-01  0.1734E+00  0.1730E+00
      2.183  0.1288E-01  0.1390E-01  0.1748E+00  0.1745E+00
      2.288  0.1197E-01  0.1223E-01  0.1760E+00  0.1758E+00
      2.394  0.1203E-01  0.1115E-01  0.1773E+00  0.1769E+00
      2.499  0.1248E-01  0.1342E-01  0.1786E+00  0.1784E+00
      2.605  0.5549E-02  0.7231E-02  0.1792E+00  0.1791E+00
      2.710  0.4497E-02  0.4599E-02  0.1797E+00  0.1796E+00
      2.816  0.1801E-02  0.1787E-02  0.1799E+00  0.1798E+00
      2.921  0.7139E-03  0.1310E-02  0.1799E+00  0.1799E+00
      3.027  0.5010E-03  0.3891E-03  0.1800E+00  0.1800E+00
      3.132  0.7340E-04  0.2194E-03  0.1800E+00  0.1800E+00
      3.238  0.1342E-04  0.2730E-06  0.1800E+00  0.1800E+00
      3.343  0.1385E-02  0.3710E-04  0.1801E+00  0.1800E+00
      3.449  0.2670E-02  0.2044E-02  0.1804E+00  0.1802E+00
      3.554  0.4697E-02  0.4150E-02  0.1809E+00  0.1807E+00
      3.660  0.5106E-02  0.4930E-02  0.1815E+00  0.1812E+00
      3.765  0.6288E-02  0.7212E-02  0.1821E+00  0.1819E+00
      3.871  0.6672E-02  0.5899E-02  0.1828E+00  0.1826E+00
      3.976  0.6489E-02  0.8246E-02  0.1835E+00  0.1834E+00
      4.082  0.5950E-02  0.5946E-02  0.1841E+00  0.1841E+00
      4.187  0.8917E-02  0.5600E-02  0.1851E+00  0.1846E+00
      4.293  0.1294E-01  0.9390E-02  0.1864E+00  0.1856E+00
      4.399  0.8952E-02  0.1282E-01  0.1874E+00  0.1870E+00
      4.504  0.9853E-02  0.9318E-02  0.1884E+00  0.1880E+00
      4.610  0.1074E-01  0.1282E-01  0.1896E+00  0.1893E+00
      4.715  0.7559E-02  0.5392E-02  0.1904E+00  0.1899E+00
      4.821  0.7400E-02  0.6978E-02  0.1911E+00  0.1906E+00
      4.926  0.6829E-02  0.5657E-02  0.1919E+00  0.1912E+00
      5.032  0.8886E-02  0.1063E-01  0.1928E+00  0.1924E+00
      5.137  0.1396E-01  0.1541E-01  0.1943E+00  0.1940E+00
      5.243  0.9689E-02  0.9195E-02  0.1953E+00  0.1949E+00
      5.348  0.7558E-02  0.6662E-02  0.1961E+00  0.1957E+00
      5.454  0.6331E-02  0.8794E-02  0.1968E+00  0.1966E+00
      5.559  0.8575E-02  0.6167E-02  0.1977E+00  0.1972E+00
      5.665  0.1662E-01  0.1370E-01  0.1994E+00  0.1987E+00
      5.770  0.1464E-01  0.1552E-01  0.2010E+00  0.2003E+00
      5.876  0.9611E-02  0.1273E-01  0.2020E+00  0.2017E+00
      5.981  0.1674E-01  0.1557E-01  0.2037E+00  0.2033E+00
      6.087  0.1123E-01  0.1262E-01  0.2049E+00  0.2046E+00
      6.192  0.9551E-02  0.7554E-02  0.2059E+00  0.2054E+00
      6.298  0.1013E-01  0.1125E-01  0.2070E+00  0.2066E+00
      6.403  0.1137E-01  0.1211E-01  0.2082E+00  0.2079E+00
      6.509  0.8505E-02  0.9786E-02  0.2091E+00  0.2089E+00
      6.614  0.1368E-02  0.2598E-02  0.2093E+00  0.2092E+00
      6.720  0.1466E-02  0.2014E-02  0.2094E+00  0.2094E+00
      6.825  0.7845E-02  0.8495E-02  0.2102E+00  0.2103E+00
      6.931  0.4176E-02  0.6817E-02  0.2107E+00  0.2110E+00
      7.036  0.4591E-02  0.2148E-02  0.2112E+00  0.2113E+00
      7.142  0.1798E-02  0.6794E-03  0.2113E+00  0.2113E+00
      7.247  0.9912E-03  0.1529E-02  0.2115E+00  0.2115E+00
      7.353  0.2314E-02  0.2296E-02  0.2117E+00  0.2117E+00
      7.458  0.3913E-02  0.4916E-02  0.2121E+00  0.2122E+00
      7.564  0.8294E-02  0.9706E-02  0.2130E+00  0.2133E+00
      7.669  0.8096E-02  0.7029E-02  0.2138E+00  0.2140E+00
      7.775  0.3744E-02  0.4381E-02  0.2142E+00  0.2145E+00
      7.880  0.6273E-02  0.6803E-02  0.2149E+00  0.2152E+00
      7.986  0.4068E-02  0.3248E-02  0.2153E+00  0.2155E+00
      8.091  0.2339E-02  0.4243E-03  0.2156E+00  0.2156E+00
      8.197  0.5190E-03  0.4481E-03  0.2156E+00  0.2156E+00
      8.302  0.9552E-03  0.9835E-03  0.2157E+00  0.2157E+00
      8.408  0.5839E-03  0.6891E-03  0.2158E+00  0.2158E+00
      8.514  0.2441E-03  0.2470E-03  0.2158E+00  0.2158E+00
      8.619  0.6667E-03  0.1327E-02  0.2159E+00  0.2160E+00
      8.725  0.1055E-02  0.2859E-03  0.2160E+00  0.2160E+00
      8.830  0.3410E-04  0.1265E-06  0.2160E+00  0.2160E+00
      8.936  0.6174E-09  0.1352E-13  0.2160E+00  0.2160E+00
      9.041  0.2104E-17  0.0000E+00  0.2160E+00  0.2160E+00
      9.147  0.0000E+00  0.0000E+00  0.2160E+00  0.2160E+00
      9.252  0.0000E+00  0.0000E+00  0.2160E+00  0.2160E+00
      9.358  0.0000E+00  0.0000E+00  0.2160E+00  0.2160E+00
      9.463  0.0000E+00  0.0000E+00  0.2160E+00  0.2160E+00
      9.569  0.0000E+00  0.0000E+00  0.2160E+00  0.2160E+00
      9.674  0.0000E+00  0.0000E+00  0.2160E+00  0.2160E+00
      9.780  0.0000E+00  0.0000E+00  0.2160E+00  0.2160E+00
      9.885  0.0000E+00  0.0000E+00  0.2160E+00  0.2160E+00
      9.991  0.0000E+00  0.0000E+00  0.2160E+00  0.2160E+00
     10.096  0.0000E+00  0.0000E+00  0.2160E+00  0.2160E+00
