       N       E                     dE             d eps       ncg     rms          rms(c)
DAV:   1     0.277754273312E+04    0.27775E+04   -0.15338E+05  8648   0.131E+03
DAV:   2    -0.455879965059E+02   -0.28231E+04   -0.25974E+04  9656   0.417E+02
DAV:   3    -0.411611571770E+03   -0.36602E+03   -0.35241E+03 10232   0.136E+02
DAV:   4    -0.425204888842E+03   -0.13593E+02   -0.13204E+02 11048   0.279E+01
DAV:   5    -0.425570194826E+03   -0.36531E+00   -0.36191E+00 11072   0.405E+00    0.160E+02
RMM:   6    -0.342545356388E+03    0.83025E+02   -0.36563E+02  8679   0.346E+01    0.637E+01
RMM:   7    -0.362266915872E+03   -0.19722E+02   -0.60203E+01  8650   0.151E+01    0.701E+01
RMM:   8    -0.377499347901E+03   -0.15232E+02   -0.58590E+01  8661   0.128E+01    0.828E+01
RMM:   9    -0.351197664966E+03    0.26302E+02   -0.16779E+01  8643   0.714E+00    0.421E+01
RMM:  10    -0.330773385468E+03    0.20424E+02   -0.19775E+01  8640   0.708E+00    0.260E+01
RMM:  11    -0.337257535301E+03   -0.64841E+01   -0.77289E+00  8641   0.556E+00    0.175E+01
RMM:  12    -0.340742326469E+03   -0.34848E+01   -0.18566E+00  8653   0.264E+00    0.139E+01
RMM:  13    -0.343074904441E+03   -0.23326E+01   -0.48837E-01  8680   0.129E+00    0.138E+01
RMM:  14    -0.345014040654E+03   -0.19391E+01   -0.35842E-01  8643   0.110E+00    0.132E+01
RMM:  15    -0.355097491116E+03   -0.10083E+02   -0.53417E+00  8641   0.413E+00    0.966E+00
RMM:  16    -0.366168026307E+03   -0.11071E+02   -0.10952E+01  8640   0.523E+00    0.773E+00
RMM:  17    -0.369739736264E+03   -0.35717E+01   -0.41642E+00  8692   0.310E+00    0.967E+00
RMM:  18    -0.370363400399E+03   -0.62366E+00   -0.93783E-01  8750   0.151E+00    0.771E+00
RMM:  19    -0.371195763839E+03   -0.83236E+00   -0.94163E-01  8645   0.158E+00    0.649E+00
RMM:  20    -0.371572893224E+03   -0.37713E+00   -0.27465E-01  8643   0.107E+00    0.613E+00
RMM:  21    -0.371746057146E+03   -0.17316E+00   -0.33177E-01  8640   0.102E+00    0.554E+00
RMM:  22    -0.371823787517E+03   -0.77730E-01   -0.16992E-01  8640   0.755E-01    0.448E+00
RMM:  23    -0.371828995694E+03   -0.52082E-02   -0.59111E-02  8649   0.430E-01    0.328E+00
RMM:  24    -0.371900502257E+03   -0.71507E-01   -0.20114E-02  8652   0.271E-01    0.285E+00
RMM:  25    -0.372050215847E+03   -0.14971E+00   -0.47427E-02  8640   0.366E-01    0.317E+00
RMM:  26    -0.372095496018E+03   -0.45280E-01   -0.37767E-02  8641   0.310E-01    0.233E+00
RMM:  27    -0.372174407073E+03   -0.78911E-01   -0.33556E-02  8647   0.317E-01    0.176E+00
RMM:  28    -0.372129744256E+03    0.44663E-01   -0.23543E-02  8641   0.252E-01    0.118E+00
RMM:  29    -0.372076979855E+03    0.52764E-01   -0.68219E-03  8652   0.140E-01    0.105E+00
RMM:  30    -0.372052919728E+03    0.24060E-01   -0.32320E-03  8557   0.981E-02    0.802E-01
RMM:  31    -0.372056274385E+03   -0.33547E-02   -0.53345E-03  8628   0.136E-01    0.520E-01
RMM:  32    -0.372068210056E+03   -0.11936E-01   -0.22713E-03  8334   0.816E-02    0.398E-01
RMM:  33    -0.372085846282E+03   -0.17636E-01   -0.19814E-03  8117   0.743E-02    0.245E-01
RMM:  34    -0.372101828691E+03   -0.15982E-01   -0.12227E-03  7507   0.558E-02    0.227E-01
RMM:  35    -0.372112991069E+03   -0.11162E-01   -0.60889E-04  6550   0.386E-02    0.164E-01
RMM:  36    -0.372135114645E+03   -0.22124E-01   -0.72220E-04  6529   0.395E-02    0.138E-01
RMM:  37    -0.372174226242E+03   -0.39112E-01   -0.17259E-03  7153   0.557E-02    0.129E-01
RMM:  38    -0.372194711325E+03   -0.20485E-01   -0.76899E-04  6382   0.361E-02    0.127E-01
RMM:  39    -0.372209059156E+03   -0.14348E-01   -0.39797E-04  5868   0.262E-02    0.111E-01
RMM:  40    -0.372225304038E+03   -0.16245E-01   -0.43827E-04  5893   0.250E-02    0.861E-02
RMM:  41    -0.372239889873E+03   -0.14586E-01   -0.53478E-04  5979   0.267E-02    0.557E-02
RMM:  42    -0.372246770315E+03   -0.68804E-02   -0.23943E-04  5566   0.179E-02    0.406E-02
RMM:  43    -0.372252442764E+03   -0.56724E-02   -0.16672E-04  5359   0.162E-02    0.207E-02
RMM:  44    -0.372255923589E+03   -0.34808E-02   -0.14295E-04  4749   0.133E-02    0.164E-02
RMM:  45    -0.372257008821E+03   -0.10852E-02   -0.68357E-05  3851   0.921E-03    0.134E-02
RMM:  46    -0.372257290522E+03   -0.28170E-03   -0.24330E-05  3280   0.693E-03    0.992E-03
RMM:  47    -0.372257415076E+03   -0.12455E-03   -0.13200E-05  2809   0.574E-03    0.617E-03
RMM:  48    -0.372257496264E+03   -0.81188E-04   -0.80611E-06  2395   0.500E-03
   1 F= -.38131333E+03 E0= -.38129705E+03  d E =-.381313E+03  mag=     2.1315
       N       E                     dE             d eps       ncg     rms          rms(c)
DAV:   1    -0.372471237355E+03   -0.21382E+00   -0.11926E+01  8936   0.636E+00    0.113E+00
RMM:   2    -0.372816531502E+03   -0.34529E+00   -0.25569E-01  8646   0.983E-01    0.547E+00
RMM:   3    -0.372502811969E+03    0.31372E+00   -0.22682E-02  8664   0.301E-01    0.148E+00
RMM:   4    -0.372489013916E+03    0.13798E-01   -0.12148E-02  8642   0.192E-01    0.128E+00
RMM:   5    -0.372481474246E+03    0.75397E-02   -0.66997E-03  8632   0.144E-01    0.929E-01
RMM:   6    -0.372480734551E+03    0.73970E-03   -0.65984E-03  8640   0.140E-01    0.823E-01
RMM:   7    -0.372473991107E+03    0.67434E-02   -0.55640E-03  8578   0.119E-01    0.467E-01
RMM:   8    -0.372473208395E+03    0.78271E-03   -0.18623E-03  8112   0.727E-02    0.293E-01
RMM:   9    -0.372473493268E+03   -0.28487E-03   -0.67790E-04  7411   0.432E-02    0.219E-01
RMM:  10    -0.372474214389E+03   -0.72112E-03   -0.25395E-04  5725   0.284E-02    0.124E-01
RMM:  11    -0.372475219361E+03   -0.10050E-02   -0.17296E-04  5407   0.235E-02    0.975E-02
RMM:  12    -0.372475555909E+03   -0.33655E-03   -0.13370E-04  5363   0.201E-02    0.523E-02
RMM:  13    -0.372475398941E+03    0.15697E-03   -0.80169E-05  5080   0.150E-02    0.404E-02
RMM:  14    -0.372475255276E+03    0.14367E-03   -0.27481E-05  4449   0.108E-02    0.242E-02
RMM:  15    -0.372475127180E+03    0.12810E-03   -0.15625E-05  4152   0.837E-03    0.135E-02
RMM:  16    -0.372475135844E+03   -0.86647E-05   -0.73804E-06  3388   0.644E-03
   2 F= -.38152990E+03 E0= -.38151371E+03  d E =-.216572E+00  mag=     2.1133
       N       E                     dE             d eps       ncg     rms          rms(c)
DAV:   1    -0.372711872700E+03   -0.23675E+00   -0.78836E+01  8640   0.158E+01    0.357E+00
RMM:   2    -0.378432191364E+03   -0.57203E+01   -0.24027E+00  8645   0.291E+00    0.239E+01
RMM:   3    -0.373408741584E+03    0.50234E+01   -0.26721E-01  8644   0.102E+00    0.749E+00
RMM:   4    -0.372995819740E+03    0.41292E+00   -0.16559E-01  8641   0.708E-01    0.622E+00
RMM:   5    -0.372786992622E+03    0.20883E+00   -0.91228E-02  8659   0.542E-01    0.355E+00
RMM:   6    -0.372750811846E+03    0.36181E-01   -0.53364E-02  8640   0.403E-01    0.325E+00
RMM:   7    -0.372744083058E+03    0.67288E-02   -0.57698E-02  8644   0.399E-01    0.233E+00
RMM:   8    -0.372702049639E+03    0.42033E-01   -0.29830E-02  8641   0.287E-01    0.134E+00
RMM:   9    -0.372686865361E+03    0.15184E-01   -0.89928E-03  8640   0.167E-01    0.938E-01
RMM:  10    -0.372685029935E+03    0.18354E-02   -0.48163E-03  8382   0.111E-01    0.899E-01
RMM:  11    -0.372680481621E+03    0.45483E-02   -0.28157E-03  8358   0.885E-02    0.538E-01
RMM:  12    -0.372681060013E+03   -0.57839E-03   -0.11902E-03  8164   0.635E-02    0.345E-01
RMM:  13    -0.372684426283E+03   -0.33663E-02   -0.81904E-04  7764   0.515E-02    0.242E-01
RMM:  14    -0.372688444581E+03   -0.40183E-02   -0.30120E-04  6103   0.320E-02    0.144E-01
RMM:  15    -0.372691914270E+03   -0.34697E-02   -0.13918E-04  5329   0.225E-02    0.122E-01
RMM:  16    -0.372694312338E+03   -0.23981E-02   -0.92757E-05  5131   0.191E-02    0.763E-02
RMM:  17    -0.372698598177E+03   -0.42858E-02   -0.15120E-04  5432   0.186E-02    0.474E-02
RMM:  18    -0.372700298476E+03   -0.17003E-02   -0.69408E-05  4901   0.135E-02    0.396E-02
RMM:  19    -0.372702656403E+03   -0.23579E-02   -0.11779E-04  5245   0.150E-02    0.301E-02
RMM:  20    -0.372703932517E+03   -0.12761E-02   -0.86112E-05  4711   0.123E-02    0.338E-02
RMM:  21    -0.372704713029E+03   -0.78051E-03   -0.58634E-05  4452   0.112E-02    0.256E-02
RMM:  22    -0.372705392054E+03   -0.67902E-03   -0.50470E-05  4306   0.985E-03    0.209E-02
RMM:  23    -0.372705744482E+03   -0.35243E-03   -0.23471E-05  3622   0.772E-03    0.191E-02
RMM:  24    -0.372706031427E+03   -0.28695E-03   -0.18296E-05  3339   0.698E-03    0.138E-02
RMM:  25    -0.372706270029E+03   -0.23860E-03   -0.17247E-05  3225   0.645E-03    0.957E-03
RMM:  26    -0.372706371899E+03   -0.10187E-03   -0.95219E-06  2765   0.559E-03    0.852E-03
RMM:  27    -0.372706432013E+03   -0.60114E-04   -0.11446E-05  2785   0.542E-03
   3 F= -.38175845E+03 E0= -.38174284E+03  d E =-.445126E+00  mag=     2.2483
       N       E                     dE             d eps       ncg     rms          rms(c)
DAV:   1    -0.372706883396E+03   -0.51150E-03   -0.26275E-01  9072   0.913E-01    0.188E-01
RMM:   2    -0.372714939672E+03   -0.80563E-02   -0.54802E-03  8449   0.150E-01    0.816E-01
RMM:   3    -0.372707370778E+03    0.75689E-02   -0.50248E-04  6829   0.463E-02    0.252E-01
RMM:   4    -0.372707369502E+03    0.12759E-05   -0.14275E-04  5181   0.263E-02
   4 F= -.38175955E+03 E0= -.38174386E+03  d E =-.446224E+00  mag=     2.2505
       N       E                     dE             d eps       ncg     rms          rms(c)
DAV:   1    -0.372727078504E+03   -0.19708E-01   -0.21109E+00  8720   0.317E+00    0.413E-01
RMM:   2    -0.372781815643E+03   -0.54737E-01   -0.52931E-02  8603   0.526E-01    0.194E+00
RMM:   3    -0.372732887985E+03    0.48928E-01   -0.47115E-03  8584   0.140E-01    0.511E-01
RMM:   4    -0.372729955248E+03    0.29327E-02   -0.11688E-03  7806   0.637E-02    0.346E-01
RMM:   5    -0.372729622521E+03    0.33273E-03   -0.94957E-05  5191   0.236E-02    0.277E-01
RMM:   6    -0.372730605802E+03   -0.98328E-03   -0.66973E-04  7356   0.453E-02    0.350E-01
RMM:   7    -0.372729326256E+03    0.12795E-02   -0.76147E-04  7687   0.485E-02    0.930E-02
RMM:   8    -0.372729321999E+03    0.42577E-05   -0.11559E-04  5055   0.220E-02
   5 F= -.38178210E+03 E0= -.38176630E+03  d E =-.225478E-01  mag=     2.2732
       N       E                     dE             d eps       ncg     rms          rms(c)
DAV:   1    -0.372730113523E+03   -0.78727E-03   -0.14526E+01  8688   0.829E+00    0.920E-01
RMM:   2    -0.372810857480E+03   -0.80744E-01   -0.31727E-01  8625   0.132E+00    0.225E+00
RMM:   3    -0.372763457336E+03    0.47400E-01   -0.11933E-02  8695   0.260E-01    0.111E+00
RMM:   4    -0.372758225348E+03    0.52320E-02   -0.42749E-03  8312   0.110E-01    0.907E-01
RMM:   5    -0.372755762511E+03    0.24628E-02   -0.95730E-04  7762   0.537E-02    0.697E-01
RMM:   6    -0.372765701794E+03   -0.99393E-02   -0.53811E-03  8587   0.118E-01    0.935E-01
RMM:   7    -0.372755329756E+03    0.10372E-01   -0.42354E-03  8594   0.108E-01    0.229E-01
RMM:   8    -0.372755005508E+03    0.32425E-03   -0.60570E-04  7210   0.479E-02    0.114E-01
RMM:   9    -0.372755045817E+03   -0.40309E-04   -0.11799E-04  5120   0.233E-02
   6 F= -.38180936E+03 E0= -.38179306E+03  d E =-.498087E-01  mag=     2.2983
       N       E                     dE             d eps       ncg     rms          rms(c)
DAV:   1    -0.372760280564E+03   -0.52751E-02   -0.93015E-01  8960   0.205E+00    0.202E-01
RMM:   2    -0.372762815542E+03   -0.25350E-02   -0.19491E-02  8495   0.328E-01    0.405E-01
RMM:   3    -0.372762182951E+03    0.63259E-03   -0.52959E-04  6747   0.627E-02    0.308E-01
RMM:   4    -0.372762077328E+03    0.10562E-03   -0.57207E-05  4958   0.182E-02    0.309E-01
RMM:   5    -0.372762080930E+03   -0.36021E-05   -0.14806E-05  4243   0.100E-02
   7 F= -.38181565E+03 E0= -.38179932E+03  d E =-.629293E-02  mag=     2.2970
       N       E                     dE             d eps       ncg     rms          rms(c)
DAV:   1    -0.372761711328E+03    0.36600E-03   -0.41768E+00  8688   0.434E+00    0.584E-01
RMM:   2    -0.372775541393E+03   -0.13830E-01   -0.83409E-02  8606   0.685E-01    0.108E+00
RMM:   3    -0.372769314478E+03    0.62269E-02   -0.23509E-03  8525   0.126E-01    0.834E-01
RMM:   4    -0.372769041535E+03    0.27294E-03   -0.21110E-04  5669   0.280E-02    0.855E-01
RMM:   5    -0.372774898506E+03   -0.58570E-02   -0.23718E-03  8297   0.799E-02    0.846E-01
RMM:   6    -0.372767552263E+03    0.73462E-02   -0.31714E-03  8607   0.929E-02    0.315E-01
RMM:   7    -0.372766194974E+03    0.13573E-02   -0.13855E-03  8083   0.642E-02    0.227E-01
RMM:   8    -0.372765851678E+03    0.34330E-03   -0.20560E-04  5542   0.288E-02    0.154E-01
RMM:   9    -0.372765921092E+03   -0.69414E-04   -0.32469E-05  4682   0.173E-02
   8 F= -.38181791E+03 E0= -.38180167E+03  d E =-.854948E-02  mag=     2.2595
       N       E                     dE             d eps       ncg     rms          rms(c)
DAV:   1    -0.372767824416E+03   -0.19727E-02   -0.84751E-01  9000   0.183E+00    0.279E-01
RMM:   2    -0.372791262767E+03   -0.23438E-01   -0.16398E-02  8585   0.288E-01    0.132E+00
RMM:   3    -0.372770051850E+03    0.21211E-01   -0.20170E-03  8344   0.878E-02    0.320E-01
RMM:   4    -0.372769319635E+03    0.73222E-03   -0.28045E-04  6008   0.377E-02    0.225E-01
RMM:   5    -0.372769653511E+03   -0.33388E-03   -0.13258E-04  5094   0.263E-02    0.248E-01
RMM:   6    -0.372770279147E+03   -0.62564E-03   -0.29667E-04  5959   0.328E-02    0.212E-01
RMM:   7    -0.372770179188E+03    0.99959E-04   -0.39233E-04  6467   0.374E-02
   9 F= -.38182153E+03 E0= -.38180537E+03  d E =-.362364E-02  mag=     2.2331
       N       E                     dE             d eps       ncg     rms          rms(c)
DAV:   1    -0.372770095494E+03    0.18365E-03   -0.63346E-04  9472   0.768E-02    0.462E-02
RMM:   2    -0.372770569102E+03   -0.47361E-03   -0.18489E-04  5276   0.279E-02    0.178E-01
RMM:   3    -0.372770233148E+03    0.33595E-03   -0.61208E-05  4614   0.202E-02    0.911E-02
RMM:   4    -0.372770145048E+03    0.88100E-04   -0.22308E-05  4112   0.115E-02
  10 F= -.38182148E+03 E0= -.38180529E+03  d E =-.357475E-02  mag=     2.2253
       N       E                     dE             d eps       ncg     rms          rms(c)
DAV:   1    -0.372771742545E+03   -0.15094E-02   -0.24965E-01  8776   0.989E-01    0.109E-01
RMM:   2    -0.372772683285E+03   -0.94074E-03   -0.48592E-03  8144   0.151E-01    0.204E-01
RMM:   3    -0.372772471273E+03    0.21201E-03   -0.17056E-04  5211   0.311E-02    0.165E-01
RMM:   4    -0.372772373067E+03    0.98206E-04   -0.30136E-05  4562   0.157E-02
  11 F= -.38182289E+03 E0= -.38180663E+03  d E =-.141021E-02  mag=     2.2214
       N       E                     dE             d eps       ncg     rms          rms(c)
DAV:   1    -0.372773175583E+03   -0.70431E-03   -0.15007E+00  8696   0.242E+00    0.324E-01
RMM:   2    -0.372780383598E+03   -0.72080E-02   -0.29014E-02  8552   0.369E-01    0.617E-01
RMM:   3    -0.372776513723E+03    0.38699E-02   -0.12676E-03  7980   0.765E-02    0.420E-01
RMM:   4    -0.372775880184E+03    0.63354E-03   -0.17778E-04  5473   0.289E-02    0.328E-01
RMM:   5    -0.372775960437E+03   -0.80254E-04   -0.74090E-05  4910   0.209E-02
  12 F= -.38182447E+03 E0= -.38180803E+03  d E =-.299000E-02  mag=     2.2237
       N       E                     dE             d eps       ncg     rms          rms(c)
DAV:   1    -0.372777270730E+03   -0.13905E-02   -0.21527E-01  9104   0.857E-01    0.211E-01
RMM:   2    -0.372792009270E+03   -0.14739E-01   -0.65169E-03  8636   0.165E-01    0.997E-01
RMM:   3    -0.372779259056E+03    0.12750E-01   -0.15782E-03  8022   0.672E-02    0.378E-01
RMM:   4    -0.372777085299E+03    0.21738E-02   -0.54338E-04  7040   0.425E-02    0.121E-01
RMM:   5    -0.372776989371E+03    0.95928E-04   -0.53257E-05  4790   0.188E-02
  13 F= -.38182470E+03 E0= -.38180826E+03  d E =-.220771E-03  mag=     2.2235
       N       E                     dE             d eps       ncg     rms          rms(c)
DAV:   1    -0.372777777603E+03   -0.69230E-03   -0.18294E-01  8952   0.780E-01    0.145E-01
RMM:   2    -0.372778380699E+03   -0.60310E-03   -0.27378E-03  7861   0.109E-01    0.214E-01
RMM:   3    -0.372778093622E+03    0.28708E-03   -0.13426E-04  5089   0.260E-02    0.154E-01
RMM:   4    -0.372778011221E+03    0.82401E-04   -0.11850E-04  4990   0.233E-02
  14 F= -.38182498E+03 E0= -.38180852E+03  d E =-.500851E-03  mag=     2.2230
       N       E                     dE             d eps       ncg     rms          rms(c)
DAV:   1    -0.372779045615E+03   -0.95199E-03   -0.16275E-01  8864   0.825E-01    0.124E-01
RMM:   2    -0.372779897016E+03   -0.85140E-03   -0.34008E-03  8430   0.134E-01    0.290E-01
RMM:   3    -0.372779385207E+03    0.51181E-03   -0.14355E-04  5105   0.308E-02    0.173E-01
RMM:   4    -0.372779269880E+03    0.11533E-03   -0.31079E-05  4671   0.162E-02    0.156E-01
RMM:   5    -0.372779274918E+03   -0.50376E-05   -0.60627E-06  3638   0.735E-03
  15 F= -.38182535E+03 E0= -.38180892E+03  d E =-.376567E-03  mag=     2.2202
