<?xml version="1.0" encoding="ISO-8859-1"?>
<modeling>
 <generator>
  <i name="program" type="string">vasp </i>
  <i name="version" type="string">5.4.1  </i>
  <i name="subversion" type="string">08Jul2015 (build Apr 24 2014 00:09:29) complex standard with constrain (TS)     parallel </i>
  <i name="platform" type="string">IBM of Center for Computational Chemistry </i>
  <i name="date" type="string">2017 12 17 </i>
  <i name="time" type="string">20:40:38 </i>
 </generator>
 <incar>
  <i type="string" name="SYSTEM"> OsO2_suf110_2x1x4_2fix</i>
  <i type="int" name="ISTART">     0</i>
  <i type="string" name="PREC">accurate       ! [low/medium/high/norma</i>
  <i type="string" name="ALGO">Fast</i>
  <i type="int" name="ISPIN">     2</i>
  <i type="int" name="NELM">   300</i>
  <i type="int" name="NELMIN">     3</i>
  <i type="int" name="IBRION">     2</i>
  <i name="EDIFFG">     -0.05000000</i>
  <i type="int" name="NSW">  1000</i>
  <i type="int" name="ISIF">     2</i>
  <i type="int" name="ISYM">     0</i>
  <i name="ENCUT">    500.00000000</i>
  <i name="POTIM">      0.10000000</i>
  <i type="string" name="LREAL"> A    ! aproximace, T zpomaluje, ale pre</i>
  <i type="int" name="ISMEAR">     0</i>
  <i name="SIGMA">      0.05000000</i>
  <i type="int" name="NWRITE">     2</i>
  <i type="logical" name="LWAVE"> F  </i>
  <i type="logical" name="LCHARG"> F  </i>
  <v type="int" name="KPOINT_BSE">    -1     0     0     0</v>
  <i type="int" name="NELM">   300</i>
 </incar>
 <kpoints>
  <generation param="Gamma">
   <v type="int" name="divisions">       4        4        1 </v>
   <v name="usershift">      0.00000000       0.00000000       0.00000000 </v>
   <v name="genvec1">      0.25000000       0.00000000       0.00000000 </v>
   <v name="genvec2">      0.00000000       0.25000000       0.00000000 </v>
   <v name="genvec3">      0.00000000       0.00000000       1.00000000 </v>
   <v name="shift">      0.00000000       0.00000000       0.00000000 </v>
  </generation>
  <varray name="kpointlist" >
   <v>       0.00000000       0.00000000       0.00000000 </v>
   <v>       0.25000000       0.00000000       0.00000000 </v>
   <v>       0.50000000       0.00000000       0.00000000 </v>
   <v>       0.00000000       0.25000000       0.00000000 </v>
   <v>       0.25000000       0.25000000       0.00000000 </v>
   <v>       0.50000000       0.25000000       0.00000000 </v>
   <v>      -0.25000000       0.25000000       0.00000000 </v>
   <v>       0.00000000       0.50000000       0.00000000 </v>
   <v>       0.25000000       0.50000000       0.00000000 </v>
   <v>       0.50000000       0.50000000       0.00000000 </v>
  </varray>
  <varray name="weights" >
   <v>       0.06250000 </v>
   <v>       0.12500000 </v>
   <v>       0.06250000 </v>
   <v>       0.12500000 </v>
   <v>       0.12500000 </v>
   <v>       0.12500000 </v>
   <v>       0.12500000 </v>
   <v>       0.06250000 </v>
   <v>       0.12500000 </v>
   <v>       0.06250000 </v>
  </varray>
 </kpoints>
 <parameters>
  <separator name="general" >
   <i type="string" name="SYSTEM">OsO2_suf110_2x1x4_2fix</i>
   <i type="logical" name="LCOMPAT"> F  </i>
  </separator>
  <separator name="electronic" >
   <i type="string" name="PREC">accura</i>
   <i name="ENMAX">    500.00000000</i>
   <i name="ENAUG">    605.39200000</i>
   <i name="EDIFF">      0.00010000</i>
   <i type="int" name="IALGO">    68</i>
   <i type="int" name="IWAVPR">    11</i>
   <i type="int" name="NBANDS">   216</i>
   <i name="NELECT">    320.00000000</i>
   <i type="int" name="TURBO">     0</i>
   <i type="int" name="IRESTART">     0</i>
   <i type="int" name="NREBOOT">     0</i>
   <i type="int" name="NMIN">     0</i>
   <i name="EREF">      0.00000000</i>
   <separator name="electronic smearing" >
    <i type="int" name="ISMEAR">     0</i>
    <i name="SIGMA">      0.05000000</i>
    <i name="KSPACING">      0.50000000</i>
    <i type="logical" name="KGAMMA"> T  </i>
   </separator>
   <separator name="electronic projectors" >
    <i type="logical" name="LREAL"> T  </i>
    <v name="ROPT">     -0.00025000     -0.00025000</v>
    <i type="int" name="LMAXPAW">  -100</i>
    <i type="int" name="LMAXMIX">     2</i>
    <i type="logical" name="NLSPLINE"> F  </i>
   </separator>
   <separator name="electronic startup" >
    <i type="int" name="ISTART">     0</i>
    <i type="int" name="ICHARG">     2</i>
    <i type="int" name="INIWAV">     1</i>
   </separator>
   <separator name="electronic spin" >
    <i type="int" name="ISPIN">     2</i>
    <i type="logical" name="LNONCOLLINEAR"> F  </i>
    <v name="MAGMOM">      1.00000000      1.00000000      1.00000000      1.00000000      1.00000000      1.00000000      1.00000000      1.00000000      1.00000000      1.00000000      1.00000000      1.00000000      1.00000000      1.00000000      1.00000000      1.00000000      1.00000000      1.00000000      1.00000000      1.00000000
      1.00000000      1.00000000      1.00000000      1.00000000      1.00000000      1.00000000      1.00000000      1.00000000      1.00000000      1.00000000      1.00000000      1.00000000      1.00000000      1.00000000      1.00000000      1.00000000      1.00000000      1.00000000      1.00000000      1.00000000
      1.00000000      1.00000000      1.00000000      1.00000000      1.00000000      1.00000000      1.00000000      1.00000000</v>
    <i name="NUPDOWN">     -1.00000000</i>
    <i type="logical" name="LSORBIT"> F  </i>
    <v name="SAXIS">      0.00000000      0.00000000      1.00000000</v>
    <i type="logical" name="LSPIRAL"> F  </i>
    <v name="QSPIRAL">      0.00000000      0.00000000      0.00000000</v>
    <i type="logical" name="LZEROZ"> F  </i>
   </separator>
   <separator name="electronic exchange-correlation" >
    <i type="logical" name="LASPH"> F  </i>
    <i type="logical" name="LMETAGGA"> F  </i>
   </separator>
   <separator name="electronic convergence" >
    <i type="int" name="NELM">   300</i>
    <i type="int" name="NELMDL">    -5</i>
    <i type="int" name="NELMIN">     3</i>
    <i name="ENINI">    500.00000000</i>
    <separator name="electronic convergence detail" >
     <i type="logical" name="LDIAG"> T  </i>
     <i type="logical" name="LSUBROT"> F  </i>
     <i name="WEIMIN">      0.00100000</i>
     <i name="EBREAK">      0.00000012</i>
     <i name="DEPER">      0.30000000</i>
     <i type="int" name="NRMM">     4</i>
     <i name="TIME">      0.40000000</i>
    </separator>
   </separator>
   <separator name="electronic mixer" >
    <i name="AMIX">      0.40000000</i>
    <i name="BMIX">      1.00000000</i>
    <i name="AMIN">      0.10000000</i>
    <i name="AMIX_MAG">      1.60000000</i>
    <i name="BMIX_MAG">      1.00000000</i>
    <separator name="electronic mixer details" >
     <i type="int" name="IMIX">     4</i>
     <i type="logical" name="MIXFIRST"> F  </i>
     <i type="int" name="MAXMIX">   -45</i>
     <i name="WC">    100.00000000</i>
     <i type="int" name="INIMIX">     1</i>
     <i type="int" name="MIXPRE">     1</i>
     <i type="int" name="MREMOVE">     5</i>
    </separator>
   </separator>
   <separator name="electronic dipolcorrection" >
    <i type="logical" name="LDIPOL"> F  </i>
    <i type="logical" name="LMONO"> F  </i>
    <i type="int" name="IDIPOL">     0</i>
    <i name="EPSILON">      1.00000000</i>
    <v name="DIPOL">   -100.00000000   -100.00000000   -100.00000000</v>
    <i name="EFIELD">      0.00000000</i>
   </separator>
  </separator>
  <separator name="grids" >
   <i type="int" name="NGX">    48</i>
   <i type="int" name="NGY">    48</i>
   <i type="int" name="NGZ">   160</i>
   <i type="int" name="NGXF">    96</i>
   <i type="int" name="NGYF">    96</i>
   <i type="int" name="NGZF">   320</i>
   <i type="logical" name="ADDGRID"> F  </i>
  </separator>
  <separator name="ionic" >
   <i type="int" name="NSW">  1000</i>
   <i type="int" name="IBRION">     2</i>
   <i type="int" name="ISIF">     2</i>
   <i name="PSTRESS">      0.00000000</i>
   <i name="EDIFFG">     -0.05000000</i>
   <i type="int" name="NFREE">     1</i>
   <i name="POTIM">      0.10000000</i>
   <i name="SMASS">     -3.00000000</i>
   <i name="SCALEE">      1.00000000</i>
  </separator>
  <separator name="ionic md" >
   <i name="TEBEG">      0.00010000</i>
   <i name="TEEND">      0.00010000</i>
   <i type="int" name="NBLOCK">     1</i>
   <i type="int" name="KBLOCK">  1000</i>
   <i type="int" name="NPACO">   256</i>
   <i name="APACO">     16.00000000</i>
  </separator>
  <separator name="symmetry" >
   <i type="int" name="ISYM">     0</i>
   <i name="SYMPREC">      0.00001000</i>
  </separator>
  <separator name="dos" >
   <i type="logical" name="LORBIT"> F  </i>
   <v name="RWIGS">     -1.00000000     -1.00000000</v>
   <i type="int" name="NEDOS">   301</i>
   <i name="EMIN">     10.00000000</i>
   <i name="EMAX">    -10.00000000</i>
   <i name="EFERMI">      0.00000000</i>
  </separator>
  <separator name="writing" >
   <i type="int" name="NWRITE">     2</i>
   <i type="logical" name="LWAVE"> F  </i>
   <i type="logical" name="LCHARG"> F  </i>
   <i type="logical" name="LPARD"> F  </i>
   <i type="logical" name="LVTOT"> F  </i>
   <i type="logical" name="LVHAR"> F  </i>
   <i type="logical" name="LELF"> F  </i>
   <i type="logical" name="LOPTICS"> F  </i>
   <v name="STM">      0.00000000      0.00000000      0.00000000      0.00000000      0.00000000      0.00000000      0.00000000</v>
  </separator>
  <separator name="performance" >
   <i type="int" name="NPAR">     4</i>
   <i type="int" name="NSIM">     4</i>
   <i type="int" name="NBLK">    -1</i>
   <i type="logical" name="LPLANE"> T  </i>
   <i type="logical" name="LSCALAPACK"> T  </i>
   <i type="logical" name="LSCAAWARE"> F  </i>
   <i type="logical" name="LSCALU"> F  </i>
   <i type="logical" name="LASYNC"> F  </i>
   <i type="logical" name="LORBITALREAL"> F  </i>
  </separator>
  <separator name="miscellaneous" >
   <i type="int" name="IDIOT">     3</i>
   <i type="logical" name="LMUSIC"> F  </i>
   <v name="POMASS">     16.00000000    190.20000000</v>
   <v name="DARWINR">      0.00000000      0.00000000</v>
   <v name="DARWINV">      1.00000000      1.00000000</v>
   <i type="logical" name="LCORR"> T  </i>
  </separator>
  <i type="logical" name="GGA_COMPAT"> T  </i>
  <i type="logical" name="LBERRY"> F  </i>
  <i type="int" name="ICORELEVEL">     0</i>
  <i type="logical" name="LDAU"> F  </i>
  <i type="int" name="I_CONSTRAINED_M">     0</i>
  <separator name="electronic exchange-correlation" >
   <i type="string" name="GGA">--</i>
   <i type="int" name="VOSKOWN">     0</i>
   <i type="logical" name="LHFCALC"> F  </i>
   <i type="string" name="PRECFOCK"></i>
   <i type="logical" name="LSYMGRAD"> F  </i>
   <i type="logical" name="LHFONE"> F  </i>
   <i type="logical" name="LRHFCALC"> F  </i>
   <i type="logical" name="LTHOMAS"> F  </i>
   <i type="logical" name="LMODELHF"> F  </i>
   <i name="ENCUT4O">     -1.00000000</i>
   <i type="int" name="EXXOEP">     0</i>
   <i type="int" name="FOURORBIT">     0</i>
   <i name="AEXX">      0.00000000</i>
   <i name="HFALPHA">      0.00000000</i>
   <i name="MCALPHA">      0.00000000</i>
   <i name="ALDAX">      1.00000000</i>
   <i name="AGGAX">      1.00000000</i>
   <i name="ALDAC">      1.00000000</i>
   <i name="AGGAC">      1.00000000</i>
   <i type="int" name="NKREDX">     1</i>
   <i type="int" name="NKREDY">     1</i>
   <i type="int" name="NKREDZ">     1</i>
   <i type="logical" name="SHIFTRED"> F  </i>
   <i type="logical" name="ODDONLY"> F  </i>
   <i type="logical" name="EVENONLY"> F  </i>
   <i type="int" name="LMAXFOCK">     0</i>
   <i type="int" name="NMAXFOCKAE">     0</i>
   <i type="logical" name="LFOCKAEDFT"> F  </i>
   <i name="HFSCREEN">      0.00000000</i>
   <i name="HFSCREENC">      0.00000000</i>
   <i type="int" name="NBANDSGWLOW">     0</i>
  </separator>
  <separator name="vdW DFT" >
   <i type="logical" name="LUSE_VDW"> F  </i>
   <i name="Zab_VDW">     -0.84910000</i>
   <i name="PARAM1">      0.12340000</i>
   <i name="PARAM2">      1.00000000</i>
   <i name="PARAM3">      0.00000000</i>
  </separator>
  <separator name="model GW" >
   <i type="int" name="MODEL_GW">     0</i>
   <i name="MODEL_EPS0">     11.22942452</i>
   <i name="MODEL_ALPHA">      1.00000000</i>
  </separator>
  <separator name="linear response parameters" >
   <i type="logical" name="LEPSILON"> F  </i>
   <i type="logical" name="LRPA"> F  </i>
   <i type="logical" name="LNABLA"> F  </i>
   <i type="logical" name="LVEL"> F  </i>
   <i type="int" name="KINTER">     0</i>
   <i name="CSHIFT">      0.10000000</i>
   <i name="OMEGAMAX">     -1.00000000</i>
   <i name="DEG_THRESHOLD">      0.00200000</i>
  </separator>
  <separator name="orbital magnetization" >
   <i type="logical" name="NUCIND"> F  </i>
   <v name="MAGPOS">      0.00000000      0.00000000      0.00000000</v>
   <i type="logical" name="LNICSALL"> T  </i>
   <i type="logical" name="ORBITALMAG"> F  </i>
   <i type="logical" name="LMAGBLOCH"> F  </i>
   <i type="logical" name="LCHIMAG"> F  </i>
   <i type="logical" name="LGAUGE"> T  </i>
   <i type="int" name="MAGATOM">     0</i>
   <v name="MAGDIPOL">      0.00000000      0.00000000      0.00000000</v>
   <v name="AVECCONST">      0.00000000      0.00000000      0.00000000</v>
  </separator>
  <separator name="response functions" >
   <i type="logical" name="LADDER"> F  </i>
   <i type="logical" name="LFXC"> F  </i>
   <i type="logical" name="LHARTREE"> T  </i>
   <i type="int" name="IBSE">     0</i>
   <v type="int" name="KPOINT">    -1     0     0     0</v>
   <i type="logical" name="LTCTE"> F  </i>
   <i type="logical" name="LTETE"> F  </i>
   <i type="logical" name="LTRIPLET"> F  </i>
   <i type="logical" name="LFXCEPS"> F  </i>
   <i type="logical" name="LFXHEG"> F  </i>
   <i type="int" name="NATURALO">     0</i>
   <i type="logical" name="L2ORDER"> F  </i>
   <i type="logical" name="LUSEW"> F  </i>
   <i name="ENCUTGW">     -2.00000000</i>
   <i name="ENCUTGWSOFT">     -2.00000000</i>
   <i name="ENCUTLF">     -1.00000000</i>
   <i type="int" name="LMAXMP2">    -1</i>
   <i name="SCISSOR">      0.00000000</i>
   <i type="int" name="NOMEGA">     0</i>
   <i type="int" name="NOMEGAR">     0</i>
   <i type="int" name="NBANDSGW">    -1</i>
   <i type="int" name="NBANDSO">    -1</i>
   <i type="int" name="NBANDSV">    -1</i>
   <i type="int" name="NELM">   300</i>
   <i type="int" name="NELMHF">     1</i>
   <i type="int" name="DIM">     3</i>
   <i type="int" name="ANTIRES">     0</i>
   <i name="OMEGAMAX">    -30.00000000</i>
   <i name="OMEGAMIN">    -30.00000000</i>
   <i name="OMEGATL">   -200.00000000</i>
   <i type="int" name="OMEGAGRID">     0</i>
   <i name="CSHIFT">     -0.10000000</i>
   <i type="logical" name="SELFENERGY"> F  </i>
   <i type="logical" name="LSPECTRAL"> F  </i>
   <i type="logical" name="LSPECTRALGW"> F  </i>
   <i type="logical" name="LSINGLES"> F  </i>
   <i type="logical" name="LFERMIGW"> F  </i>
   <i type="logical" name="ODDONLYGW"> F  </i>
   <i type="logical" name="EVENONLYGW"> F  </i>
   <i type="int" name="NKREDLFX">     1</i>
   <i type="int" name="NKREDLFY">     1</i>
   <i type="int" name="NKREDLFZ">     1</i>
   <i type="int" name="MAXMEM">  1800</i>
   <i type="int" name="TELESCOPE">     0</i>
   <i type="int" name="TAUPAR">     1</i>
   <i type="int" name="OMEGAPAR">    -1</i>
   <i name="LAMBDA">      1.00000000</i>
  </separator>
  <separator name="External order field" >
   <i name="OFIELD_KAPPA">      0.00000000</i>
   <v name="OFIELD_K">      0.00000000      0.00000000      0.00000000</v>
   <i name="OFIELD_Q6_NEAR">      0.00000000</i>
   <i name="OFIELD_Q6_FAR">      0.00000000</i>
   <i name="OFIELD_A">      0.00000000</i>
  </separator>
 </parameters>
 <atominfo>
  <atoms>      48 </atoms>
  <types>       2 </types>
  <array name="atoms" >
   <dimension dim="1">ion</dimension>
   <field type="string">element</field>
   <field type="int">atomtype</field>
   <set>
    <rc><c>O </c><c>   1</c></rc>
    <rc><c>O </c><c>   1</c></rc>
    <rc><c>O </c><c>   1</c></rc>
    <rc><c>O </c><c>   1</c></rc>
    <rc><c>O </c><c>   1</c></rc>
    <rc><c>O </c><c>   1</c></rc>
    <rc><c>O </c><c>   1</c></rc>
    <rc><c>O </c><c>   1</c></rc>
    <rc><c>O </c><c>   1</c></rc>
    <rc><c>O </c><c>   1</c></rc>
    <rc><c>O </c><c>   1</c></rc>
    <rc><c>O </c><c>   1</c></rc>
    <rc><c>O </c><c>   1</c></rc>
    <rc><c>O </c><c>   1</c></rc>
    <rc><c>O </c><c>   1</c></rc>
    <rc><c>O </c><c>   1</c></rc>
    <rc><c>O </c><c>   1</c></rc>
    <rc><c>O </c><c>   1</c></rc>
    <rc><c>O </c><c>   1</c></rc>
    <rc><c>O </c><c>   1</c></rc>
    <rc><c>O </c><c>   1</c></rc>
    <rc><c>O </c><c>   1</c></rc>
    <rc><c>O </c><c>   1</c></rc>
    <rc><c>O </c><c>   1</c></rc>
    <rc><c>O </c><c>   1</c></rc>
    <rc><c>O </c><c>   1</c></rc>
    <rc><c>O </c><c>   1</c></rc>
    <rc><c>O </c><c>   1</c></rc>
    <rc><c>O </c><c>   1</c></rc>
    <rc><c>O </c><c>   1</c></rc>
    <rc><c>O </c><c>   1</c></rc>
    <rc><c>O </c><c>   1</c></rc>
    <rc><c>Os</c><c>   2</c></rc>
    <rc><c>Os</c><c>   2</c></rc>
    <rc><c>Os</c><c>   2</c></rc>
    <rc><c>Os</c><c>   2</c></rc>
    <rc><c>Os</c><c>   2</c></rc>
    <rc><c>Os</c><c>   2</c></rc>
    <rc><c>Os</c><c>   2</c></rc>
    <rc><c>Os</c><c>   2</c></rc>
    <rc><c>Os</c><c>   2</c></rc>
    <rc><c>Os</c><c>   2</c></rc>
    <rc><c>Os</c><c>   2</c></rc>
    <rc><c>Os</c><c>   2</c></rc>
    <rc><c>Os</c><c>   2</c></rc>
    <rc><c>Os</c><c>   2</c></rc>
    <rc><c>Os</c><c>   2</c></rc>
    <rc><c>Os</c><c>   2</c></rc>
   </set>
  </array>
  <array name="atomtypes" >
   <dimension dim="1">type</dimension>
   <field type="int">atomspertype</field>
   <field type="string">element</field>
   <field>mass</field>
   <field>valence</field>
   <field type="string">pseudopotential</field>
   <set>
    <rc><c>  32</c><c>O </c><c>     16.00000000</c><c>      6.00000000</c><c>  PAW_PBE O 08Apr2002                   </c></rc>
    <rc><c>  16</c><c>Os</c><c>    190.20000000</c><c>      8.00000000</c><c>  PAW_PBE Os 17Jan2003                  </c></rc>
   </set>
  </array>
 </atominfo>
 <structure name="initialpos" >
  <crystal>
   <varray name="basis" >
    <v>       0.00000000       0.00000000       6.42203989 </v>
    <v>       4.49914758      -4.49914758       0.00000000 </v>
    <v>      15.54584216      15.54584216       0.00000000 </v>
   </varray>
   <i name="volume">    898.35396184 </i>
   <varray name="rec_basis" >
    <v>       0.00000000       0.00000000       0.15571376 </v>
    <v>       0.11113216      -0.11113216       0.00000000 </v>
    <v>       0.03216294       0.03216294       0.00000000 </v>
   </varray>
  </crystal>
  <varray name="positions" >
   <v>       0.13081166       0.56969810       0.00000000 </v>
   <v>       0.63081166       0.56969810       0.00000000 </v>
   <v>       0.38081166       0.26151810       0.05551494 </v>
   <v>       0.88081166       0.26151810       0.05551494 </v>
   <v>       0.38081166       0.87787810       0.05551494 </v>
   <v>       0.88081166       0.87787810       0.05551494 </v>
   <v>       0.13081166       0.56969810       0.11102988 </v>
   <v>       0.63081166       0.56969810       0.11102988 </v>
   <v>       0.13081166       0.06969810       0.14470582 </v>
   <v>       0.63081166       0.06969810       0.14470582 </v>
   <v>       0.38081166       0.37787810       0.20022076 </v>
   <v>       0.88081166       0.37787810       0.20022076 </v>
   <v>       0.38081166       0.76151810       0.20022076 </v>
   <v>       0.88081166       0.76151810       0.20022076 </v>
   <v>       0.13081166       0.06969810       0.25573570 </v>
   <v>       0.63081166       0.06969810       0.25573570 </v>
   <v>       0.13081166       0.56969810       0.28941163 </v>
   <v>       0.63081166       0.56969810       0.28941163 </v>
   <v>       0.38081166       0.26151810       0.34492657 </v>
   <v>       0.88081166       0.26151810       0.34492657 </v>
   <v>       0.38081166       0.87787810       0.34492657 </v>
   <v>       0.88081166       0.87787810       0.34492657 </v>
   <v>       0.13081166       0.56969810       0.40044151 </v>
   <v>       0.63081166       0.56969810       0.40044151 </v>
   <v>       0.13081166       0.06969810       0.43411745 </v>
   <v>       0.63081166       0.06969810       0.43411745 </v>
   <v>       0.38081166       0.37787810       0.48963239 </v>
   <v>       0.88081166       0.37787810       0.48963239 </v>
   <v>       0.38081166       0.76151810       0.48963239 </v>
   <v>       0.88081166       0.76151810       0.48963239 </v>
   <v>       0.13081166       0.06969810       0.54514733 </v>
   <v>       0.63081166       0.06969810       0.54514733 </v>
   <v>       0.13081166       0.06969810       0.05551494 </v>
   <v>       0.63081166       0.06969810       0.05551494 </v>
   <v>       0.38081166       0.56969810       0.05551494 </v>
   <v>       0.88081166       0.56969810       0.05551494 </v>
   <v>       0.38081166       0.06969810       0.20022076 </v>
   <v>       0.88081166       0.06969810       0.20022076 </v>
   <v>       0.13081166       0.56969810       0.20022076 </v>
   <v>       0.63081166       0.56969810       0.20022076 </v>
   <v>       0.13081166       0.06969810       0.34492657 </v>
   <v>       0.63081166       0.06969810       0.34492657 </v>
   <v>       0.38081166       0.56969810       0.34492657 </v>
   <v>       0.88081166       0.56969810       0.34492657 </v>
   <v>       0.38081166       0.06969810       0.48963239 </v>
   <v>       0.88081166       0.06969810       0.48963239 </v>
   <v>       0.13081166       0.56969810       0.48963239 </v>
   <v>       0.63081166       0.56969810       0.48963239 </v>
  </varray>
  <varray name="selective"  type="logical" >
   <v type="logical" >  F  F  F </v>
   <v type="logical" >  F  F  F </v>
   <v type="logical" >  F  F  F </v>
   <v type="logical" >  F  F  F </v>
   <v type="logical" >  F  F  F </v>
   <v type="logical" >  F  F  F </v>
   <v type="logical" >  F  F  F </v>
   <v type="logical" >  F  F  F </v>
   <v type="logical" >  F  F  F </v>
   <v type="logical" >  F  F  F </v>
   <v type="logical" >  F  F  F </v>
   <v type="logical" >  F  F  F </v>
   <v type="logical" >  F  F  F </v>
   <v type="logical" >  F  F  F </v>
   <v type="logical" >  F  F  F </v>
   <v type="logical" >  F  F  F </v>
   <v type="logical" >  T  T  T </v>
   <v type="logical" >  T  T  T </v>
   <v type="logical" >  T  T  T </v>
   <v type="logical" >  T  T  T </v>
   <v type="logical" >  T  T  T </v>
   <v type="logical" >  T  T  T </v>
   <v type="logical" >  T  T  T </v>
   <v type="logical" >  T  T  T </v>
   <v type="logical" >  T  T  T </v>
   <v type="logical" >  T  T  T </v>
   <v type="logical" >  T  T  T </v>
   <v type="logical" >  T  T  T </v>
   <v type="logical" >  T  T  T </v>
   <v type="logical" >  T  T  T </v>
   <v type="logical" >  T  T  T </v>
   <v type="logical" >  T  T  T </v>
   <v type="logical" >  F  F  F </v>
   <v type="logical" >  F  F  F </v>
   <v type="logical" >  F  F  F </v>
   <v type="logical" >  F  F  F </v>
   <v type="logical" >  F  F  F </v>
   <v type="logical" >  F  F  F </v>
   <v type="logical" >  F  F  F </v>
   <v type="logical" >  F  F  F </v>
   <v type="logical" >  T  T  T </v>
   <v type="logical" >  T  T  T </v>
   <v type="logical" >  T  T  T </v>
   <v type="logical" >  T  T  T </v>
   <v type="logical" >  T  T  T </v>
   <v type="logical" >  T  T  T </v>
   <v type="logical" >  T  T  T </v>
   <v type="logical" >  T  T  T </v>
  </varray>
  <nose>
   <v>      -3.00000000       0.00000000       0.00010000       0.00010000 </v>
  </nose>
 </structure>
 <calculation>
  <scstep>
   <time name="dav">   26.92   26.93</time>
   <time name="total">   27.22   27.23</time>
   <energy>
    <i name="alphaZ">   1035.12072450 </i>
    <i name="ewald">  57877.22544267 </i>
    <i name="hartreedc"> -78547.87286670 </i>
    <i name="XCdc">    379.82834526 </i>
    <i name="pawpsdc">  17974.22483518 </i>
    <i name="pawaedc"> -17204.48438884 </i>
    <i name="eentropy">     -0.02115406 </i>
    <i name="bandstr">    746.56350736 </i>
    <i name="atom">  20516.95828776 </i>
    <i name="e_fr_energy">   2777.54273312 </i>
    <i name="e_wo_entrp">   2777.56388719 </i>
    <i name="e_0_energy">   2777.55331015 </i>
   </energy>
  </scstep>
  <scstep>
   <time name="dav">   29.27   29.28</time>
   <time name="total">   29.27   29.29</time>
   <energy>
    <i name="e_fr_energy">    -45.58799651 </i>
    <i name="e_wo_entrp">    -45.55051603 </i>
    <i name="e_0_energy">    -45.56925627 </i>
   </energy>
  </scstep>
  <scstep>
   <time name="dav">   30.59   30.60</time>
   <time name="total">   30.60   30.61</time>
   <energy>
    <i name="e_fr_energy">   -411.61157177 </i>
    <i name="e_wo_entrp">   -411.54654872 </i>
    <i name="e_0_energy">   -411.57906024 </i>
   </energy>
  </scstep>
  <scstep>
   <time name="dav">   32.45   32.46</time>
   <time name="total">   32.45   32.47</time>
   <energy>
    <i name="e_fr_energy">   -425.20488884 </i>
    <i name="e_wo_entrp">   -425.13773515 </i>
    <i name="e_0_energy">   -425.17131200 </i>
   </energy>
  </scstep>
  <scstep>
   <time name="dav">   32.51   32.52</time>
   <time name="total">   33.43   33.44</time>
   <energy>
    <i name="e_fr_energy">   -425.57019483 </i>
    <i name="e_wo_entrp">   -425.50291652 </i>
    <i name="e_0_energy">   -425.53655568 </i>
   </energy>
  </scstep>
  <scstep>
   <time name="diag">    4.54    4.54</time>
   <time name="diis">   15.02   15.02</time>
   <time name="orth">    0.88    0.88</time>
   <time name="total">   21.62   21.63</time>
   <energy>
    <i name="e_fr_energy">   -342.54535639 </i>
    <i name="e_wo_entrp">   -342.51290163 </i>
    <i name="e_0_energy">   -342.52912901 </i>
   </energy>
  </scstep>
  <scstep>
   <time name="diag">    4.54    4.54</time>
   <time name="diis">   14.96   14.96</time>
   <time name="orth">    0.88    0.88</time>
   <time name="total">   21.55   21.55</time>
   <energy>
    <i name="e_fr_energy">   -362.26691587 </i>
    <i name="e_wo_entrp">   -362.24299319 </i>
    <i name="e_0_energy">   -362.25495453 </i>
   </energy>
  </scstep>
  <scstep>
   <time name="diag">    4.53    4.53</time>
   <time name="diis">   14.99   14.99</time>
   <time name="orth">    0.88    0.88</time>
   <time name="total">   21.58   21.59</time>
   <energy>
    <i name="e_fr_energy">   -377.49934790 </i>
    <i name="e_wo_entrp">   -377.47230141 </i>
    <i name="e_0_energy">   -377.48582465 </i>
   </energy>
  </scstep>
  <scstep>
   <time name="diag">    4.54    4.54</time>
   <time name="diis">   14.95   14.95</time>
   <time name="orth">    0.88    0.88</time>
   <time name="total">   21.54   21.55</time>
   <energy>
    <i name="e_fr_energy">   -351.19766497 </i>
    <i name="e_wo_entrp">   -351.18225291 </i>
    <i name="e_0_energy">   -351.18995894 </i>
   </energy>
  </scstep>
  <scstep>
   <time name="diag">    4.53    4.53</time>
   <time name="diis">   14.94   14.94</time>
   <time name="orth">    0.88    0.88</time>
   <time name="total">   21.54   21.55</time>
   <energy>
    <i name="e_fr_energy">   -330.77338547 </i>
    <i name="e_wo_entrp">   -330.71830189 </i>
    <i name="e_0_energy">   -330.74584368 </i>
   </energy>
  </scstep>
  <scstep>
   <time name="diag">    4.49    4.49</time>
   <time name="diis">   15.02   15.03</time>
   <time name="orth">    0.88    0.88</time>
   <time name="total">   21.58   21.58</time>
   <energy>
    <i name="e_fr_energy">   -337.25753530 </i>
    <i name="e_wo_entrp">   -337.21333539 </i>
    <i name="e_0_energy">   -337.23543535 </i>
   </energy>
  </scstep>
  <scstep>
   <time name="diag">    4.50    4.50</time>
   <time name="diis">   15.03   15.04</time>
   <time name="orth">    0.88    0.88</time>
   <time name="total">   21.59   21.60</time>
   <energy>
    <i name="e_fr_energy">   -340.74232647 </i>
    <i name="e_wo_entrp">   -340.70531709 </i>
    <i name="e_0_energy">   -340.72382178 </i>
   </energy>
  </scstep>
  <scstep>
   <time name="diag">    4.49    4.49</time>
   <time name="diis">   15.05   15.05</time>
   <time name="orth">    0.88    0.88</time>
   <time name="total">   21.60   21.61</time>
   <energy>
    <i name="e_fr_energy">   -343.07490444 </i>
    <i name="e_wo_entrp">   -343.03870898 </i>
    <i name="e_0_energy">   -343.05680671 </i>
   </energy>
  </scstep>
  <scstep>
   <time name="diag">    4.49    4.49</time>
   <time name="diis">   14.96   14.96</time>
   <time name="orth">    0.88    0.88</time>
   <time name="total">   21.51   21.52</time>
   <energy>
    <i name="e_fr_energy">   -345.01404065 </i>
    <i name="e_wo_entrp">   -344.97638757 </i>
    <i name="e_0_energy">   -344.99521411 </i>
   </energy>
  </scstep>
  <scstep>
   <time name="diag">    4.48    4.49</time>
   <time name="diis">   15.01   15.01</time>
   <time name="orth">    0.88    0.88</time>
   <time name="total">   21.55   21.56</time>
   <energy>
    <i name="e_fr_energy">   -355.09749112 </i>
    <i name="e_wo_entrp">   -355.06290273 </i>
    <i name="e_0_energy">   -355.08019692 </i>
   </energy>
  </scstep>
  <scstep>
   <time name="diag">    4.49    4.49</time>
   <time name="diis">   14.95   14.95</time>
   <time name="orth">    0.88    0.88</time>
   <time name="total">   21.49   21.50</time>
   <energy>
    <i name="e_fr_energy">   -366.16802631 </i>
    <i name="e_wo_entrp">   -366.13491533 </i>
    <i name="e_0_energy">   -366.15147082 </i>
   </energy>
  </scstep>
  <scstep>
   <time name="diag">    4.49    4.49</time>
   <time name="diis">   15.00   15.01</time>
   <time name="orth">    0.88    0.88</time>
   <time name="total">   21.56   21.56</time>
   <energy>
    <i name="e_fr_energy">   -369.73973626 </i>
    <i name="e_wo_entrp">   -369.69040867 </i>
    <i name="e_0_energy">   -369.71507247 </i>
   </energy>
  </scstep>
  <scstep>
   <time name="diag">    4.49    4.49</time>
   <time name="diis">   15.08   15.08</time>
   <time name="orth">    0.88    0.88</time>
   <time name="total">   21.64   21.64</time>
   <energy>
    <i name="e_fr_energy">   -370.36340040 </i>
    <i name="e_wo_entrp">   -370.32336284 </i>
    <i name="e_0_energy">   -370.34338162 </i>
   </energy>
  </scstep>
  <scstep>
   <time name="diag">    4.49    4.49</time>
   <time name="diis">   14.93   14.93</time>
   <time name="orth">    0.88    0.88</time>
   <time name="total">   21.48   21.48</time>
   <energy>
    <i name="e_fr_energy">   -371.19576384 </i>
    <i name="e_wo_entrp">   -371.15839269 </i>
    <i name="e_0_energy">   -371.17707826 </i>
   </energy>
  </scstep>
  <scstep>
   <time name="diag">    4.49    4.49</time>
   <time name="diis">   14.91   14.92</time>
   <time name="orth">    0.88    0.88</time>
   <time name="total">   21.46   21.46</time>
   <energy>
    <i name="e_fr_energy">   -371.57289322 </i>
    <i name="e_wo_entrp">   -371.53339933 </i>
    <i name="e_0_energy">   -371.55314628 </i>
   </energy>
  </scstep>
  <scstep>
   <time name="diag">    4.48    4.49</time>
   <time name="diis">   14.94   14.94</time>
   <time name="orth">    0.88    0.88</time>
   <time name="total">   21.48   21.49</time>
   <energy>
    <i name="e_fr_energy">   -371.74605715 </i>
    <i name="e_wo_entrp">   -371.70497569 </i>
    <i name="e_0_energy">   -371.72551642 </i>
   </energy>
  </scstep>
  <scstep>
   <time name="diag">    4.48    4.48</time>
   <time name="diis">   14.95   14.95</time>
   <time name="orth">    0.88    0.88</time>
   <time name="total">   21.49   21.50</time>
   <energy>
    <i name="e_fr_energy">   -371.82378752 </i>
    <i name="e_wo_entrp">   -371.78500963 </i>
    <i name="e_0_energy">   -371.80439857 </i>
   </energy>
  </scstep>
  <scstep>
   <time name="diag">    4.48    4.49</time>
   <time name="diis">   14.96   14.96</time>
   <time name="orth">    0.88    0.88</time>
   <time name="total">   21.50   21.51</time>
   <energy>
    <i name="e_fr_energy">   -371.82899569 </i>
    <i name="e_wo_entrp">   -371.79209863 </i>
    <i name="e_0_energy">   -371.81054716 </i>
   </energy>
  </scstep>
  <scstep>
   <time name="diag">    4.49    4.49</time>
   <time name="diis">   14.97   14.98</time>
   <time name="orth">    0.88    0.88</time>
   <time name="total">   21.51   21.52</time>
   <energy>
    <i name="e_fr_energy">   -371.90050226 </i>
    <i name="e_wo_entrp">   -371.86612678 </i>
    <i name="e_0_energy">   -371.88331452 </i>
   </energy>
  </scstep>
  <scstep>
   <time name="diag">    4.49    4.49</time>
   <time name="diis">   14.95   14.96</time>
   <time name="orth">    0.88    0.88</time>
   <time name="total">   21.50   21.51</time>
   <energy>
    <i name="e_fr_energy">   -372.05021585 </i>
    <i name="e_wo_entrp">   -372.01775151 </i>
    <i name="e_0_energy">   -372.03398368 </i>
   </energy>
  </scstep>
  <scstep>
   <time name="diag">    4.50    4.50</time>
   <time name="diis">   14.91   14.91</time>
   <time name="orth">    0.88    0.88</time>
   <time name="total">   21.47   21.48</time>
   <energy>
    <i name="e_fr_energy">   -372.09549602 </i>
    <i name="e_wo_entrp">   -372.06349582 </i>
    <i name="e_0_energy">   -372.07949592 </i>
   </energy>
  </scstep>
  <scstep>
   <time name="diag">    4.50    4.50</time>
   <time name="diis">   14.91   14.92</time>
   <time name="orth">    0.89    0.89</time>
   <time name="total">   21.47   21.48</time>
   <energy>
    <i name="e_fr_energy">   -372.17440707 </i>
    <i name="e_wo_entrp">   -372.14568010 </i>
    <i name="e_0_energy">   -372.16004359 </i>
   </energy>
  </scstep>
  <scstep>
   <time name="diag">    4.50    4.50</time>
   <time name="diis">   14.89   14.89</time>
   <time name="orth">    0.88    0.88</time>
   <time name="total">   21.45   21.46</time>
   <energy>
    <i name="e_fr_energy">   -372.12974426 </i>
    <i name="e_wo_entrp">   -372.10146365 </i>
    <i name="e_0_energy">   -372.11560395 </i>
   </energy>
  </scstep>
  <scstep>
   <time name="diag">    4.50    4.50</time>
   <time name="diis">   14.94   14.94</time>
   <time name="orth">    0.88    0.88</time>
   <time name="total">   21.50   21.50</time>
   <energy>
    <i name="e_fr_energy">   -372.07697986 </i>
    <i name="e_wo_entrp">   -372.04827263 </i>
    <i name="e_0_energy">   -372.06262624 </i>
   </energy>
  </scstep>
  <scstep>
   <time name="diag">    4.51    4.51</time>
   <time name="diis">   14.83   14.83</time>
   <time name="orth">    0.88    0.88</time>
   <time name="total">   21.40   21.40</time>
   <energy>
    <i name="e_fr_energy">   -372.05291973 </i>
    <i name="e_wo_entrp">   -372.02375286 </i>
    <i name="e_0_energy">   -372.03833629 </i>
   </energy>
  </scstep>
  <scstep>
   <time name="diag">    4.48    4.48</time>
   <time name="diis">   14.95   14.95</time>
   <time name="orth">    0.88    0.88</time>
   <time name="total">   21.49   21.50</time>
   <energy>
    <i name="e_fr_energy">   -372.05627439 </i>
    <i name="e_wo_entrp">   -372.02616278 </i>
    <i name="e_0_energy">   -372.04121858 </i>
   </energy>
  </scstep>
  <scstep>
   <time name="diag">    4.48    4.48</time>
   <time name="diis">   14.51   14.52</time>
   <time name="orth">    0.88    0.88</time>
   <time name="total">   21.05   21.06</time>
   <energy>
    <i name="e_fr_energy">   -372.06821006 </i>
    <i name="e_wo_entrp">   -372.03777954 </i>
    <i name="e_0_energy">   -372.05299480 </i>
   </energy>
  </scstep>
  <scstep>
   <time name="diag">    4.48    4.49</time>
   <time name="diis">   14.14   14.15</time>
   <time name="orth">    0.88    0.88</time>
   <time name="total">   20.69   20.70</time>
   <energy>
    <i name="e_fr_energy">   -372.08584628 </i>
    <i name="e_wo_entrp">   -372.05499971 </i>
    <i name="e_0_energy">   -372.07042299 </i>
   </energy>
  </scstep>
  <scstep>
   <time name="diag">    4.48    4.48</time>
   <time name="diis">   13.16   13.16</time>
   <time name="orth">    0.88    0.88</time>
   <time name="total">   19.69   19.70</time>
   <energy>
    <i name="e_fr_energy">   -372.10182869 </i>
    <i name="e_wo_entrp">   -372.07048856 </i>
    <i name="e_0_energy">   -372.08615862 </i>
   </energy>
  </scstep>
  <scstep>
   <time name="diag">    4.48    4.48</time>
   <time name="diis">   11.60   11.60</time>
   <time name="orth">    0.88    0.88</time>
   <time name="total">   18.13   18.15</time>
   <energy>
    <i name="e_fr_energy">   -372.11299107 </i>
    <i name="e_wo_entrp">   -372.08128415 </i>
    <i name="e_0_energy">   -372.09713761 </i>
   </energy>
  </scstep>
  <scstep>
   <time name="diag">    4.52    4.52</time>
   <time name="diis">   11.68   11.69</time>
   <time name="orth">    0.88    0.88</time>
   <time name="total">   18.27   18.27</time>
   <energy>
    <i name="e_fr_energy">   -372.13511464 </i>
    <i name="e_wo_entrp">   -372.10295148 </i>
    <i name="e_0_energy">   -372.11903306 </i>
   </energy>
  </scstep>
  <scstep>
   <time name="diag">    4.52    4.52</time>
   <time name="diis">   12.62   12.63</time>
   <time name="orth">    0.88    0.88</time>
   <time name="total">   19.21   19.21</time>
   <energy>
    <i name="e_fr_energy">   -372.17422624 </i>
    <i name="e_wo_entrp">   -372.14144152 </i>
    <i name="e_0_energy">   -372.15783388 </i>
   </energy>
  </scstep>
  <scstep>
   <time name="diag">    4.52    4.52</time>
   <time name="diis">   11.35   11.35</time>
   <time name="orth">    0.88    0.88</time>
   <time name="total">   17.93   17.94</time>
   <energy>
    <i name="e_fr_energy">   -372.19471132 </i>
    <i name="e_wo_entrp">   -372.16180036 </i>
    <i name="e_0_energy">   -372.17825584 </i>
   </energy>
  </scstep>
  <scstep>
   <time name="diag">    4.50    4.51</time>
   <time name="diis">   10.51   10.51</time>
   <time name="orth">    0.88    0.88</time>
   <time name="total">   17.08   17.08</time>
   <energy>
    <i name="e_fr_energy">   -372.20905916 </i>
    <i name="e_wo_entrp">   -372.17614128 </i>
    <i name="e_0_energy">   -372.19260022 </i>
   </energy>
  </scstep>
  <scstep>
   <time name="diag">    4.49    4.50</time>
   <time name="diis">   10.60   10.60</time>
   <time name="orth">    0.88    0.88</time>
   <time name="total">   17.15   17.16</time>
   <energy>
    <i name="e_fr_energy">   -372.22530404 </i>
    <i name="e_wo_entrp">   -372.19247048 </i>
    <i name="e_0_energy">   -372.20888726 </i>
   </energy>
  </scstep>
  <scstep>
   <time name="diag">    4.46    4.46</time>
   <time name="diis">   10.72   10.72</time>
   <time name="orth">    0.88    0.88</time>
   <time name="total">   17.23   17.24</time>
   <energy>
    <i name="e_fr_energy">   -372.23988987 </i>
    <i name="e_wo_entrp">   -372.20721878 </i>
    <i name="e_0_energy">   -372.22355433 </i>
   </energy>
  </scstep>
  <scstep>
   <time name="diag">    4.45    4.45</time>
   <time name="diis">   10.09   10.09</time>
   <time name="orth">    0.88    0.88</time>
   <time name="total">   16.61   16.61</time>
   <energy>
    <i name="e_fr_energy">   -372.24677031 </i>
    <i name="e_wo_entrp">   -372.21415260 </i>
    <i name="e_0_energy">   -372.23046146 </i>
   </energy>
  </scstep>
  <scstep>
   <time name="diag">    4.45    4.45</time>
   <time name="diis">    9.86    9.86</time>
   <time name="orth">    0.88    0.88</time>
   <time name="total">   16.39   16.39</time>
   <energy>
    <i name="e_fr_energy">   -372.25244276 </i>
    <i name="e_wo_entrp">   -372.21985975 </i>
    <i name="e_0_energy">   -372.23615126 </i>
   </energy>
  </scstep>
  <scstep>
   <time name="diag">    4.45    4.45</time>
   <time name="diis">    9.40    9.40</time>
   <time name="orth">    0.88    0.88</time>
   <time name="total">   15.92   15.92</time>
   <energy>
    <i name="e_fr_energy">   -372.25592359 </i>
    <i name="e_wo_entrp">   -372.22338609 </i>
    <i name="e_0_energy">   -372.23965484 </i>
   </energy>
  </scstep>
  <scstep>
   <time name="diag">    4.45    4.45</time>
   <time name="diis">    8.52    8.53</time>
   <time name="orth">    0.88    0.88</time>
   <time name="total">   15.04   15.05</time>
   <energy>
    <i name="e_fr_energy">   -372.25700882 </i>
    <i name="e_wo_entrp">   -372.22447436 </i>
    <i name="e_0_energy">   -372.24074159 </i>
   </energy>
  </scstep>
  <scstep>
   <time name="diag">    4.48    4.48</time>
   <time name="diis">    8.05    8.05</time>
   <time name="orth">    0.88    0.88</time>
   <time name="total">   14.60   14.61</time>
   <energy>
    <i name="e_fr_energy">   -372.25729052 </i>
    <i name="e_wo_entrp">   -372.22474747 </i>
    <i name="e_0_energy">   -372.24101899 </i>
   </energy>
  </scstep>
  <scstep>
   <time name="diag">    4.46    4.46</time>
   <time name="diis">    7.60    7.61</time>
   <time name="orth">    0.88    0.88</time>
   <time name="total">   14.15   14.15</time>
   <energy>
    <i name="e_fr_energy">   -372.25741508 </i>
    <i name="e_wo_entrp">   -372.22486179 </i>
    <i name="e_0_energy">   -372.24113843 </i>
   </energy>
  </scstep>
  <scstep>
   <time name="diag">    4.46    4.47</time>
   <time name="diis">    7.31    7.31</time>
   <time name="orth">    0.88    0.88</time>
   <time name="total">   12.94   12.95</time>
   <energy>
    <i name="alphaZ">   1035.12072450 </i>
    <i name="ewald">  57877.22544267 </i>
    <i name="hartreedc"> -78820.69067443 </i>
    <i name="XCdc">    402.11130479 </i>
    <i name="pawpsdc">  30078.57009609 </i>
    <i name="pawaedc"> -29364.92395474 </i>
    <i name="eentropy">     -0.03255527 </i>
    <i name="bandstr">  -2096.59616765 </i>
    <i name="atom">  20516.95828776 </i>
    <i name="e_fr_energy">   -372.25749626 </i>
    <i name="e_wo_entrp">   -372.22494100 </i>
    <i name="e_0_energy">   -372.24121863 </i>
   </energy>
  </scstep>
  <structure>
   <crystal>
    <varray name="basis" >
     <v>       0.00000000       0.00000000       6.42203989 </v>
     <v>       4.49914758      -4.49914758       0.00000000 </v>
     <v>      15.54584216      15.54584216       0.00000000 </v>
    </varray>
    <i name="volume">    898.35396184 </i>
    <varray name="rec_basis" >
     <v>       0.00000000       0.00000000       0.15571376 </v>
     <v>       0.11113216      -0.11113216       0.00000000 </v>
     <v>       0.03216294       0.03216294       0.00000000 </v>
    </varray>
   </crystal>
   <varray name="positions" >
    <v>       0.13081166       0.56969810       0.00000000 </v>
    <v>       0.63081166       0.56969810       0.00000000 </v>
    <v>       0.38081166       0.26151810       0.05551494 </v>
    <v>       0.88081166       0.26151810       0.05551494 </v>
    <v>       0.38081166       0.87787810       0.05551494 </v>
    <v>       0.88081166       0.87787810       0.05551494 </v>
    <v>       0.13081166       0.56969810       0.11102988 </v>
    <v>       0.63081166       0.56969810       0.11102988 </v>
    <v>       0.13081166       0.06969810       0.14470582 </v>
    <v>       0.63081166       0.06969810       0.14470582 </v>
    <v>       0.38081166       0.37787810       0.20022076 </v>
    <v>       0.88081166       0.37787810       0.20022076 </v>
    <v>       0.38081166       0.76151810       0.20022076 </v>
    <v>       0.88081166       0.76151810       0.20022076 </v>
    <v>       0.13081166       0.06969810       0.25573570 </v>
    <v>       0.63081166       0.06969810       0.25573570 </v>
    <v>       0.13081166       0.56969810       0.28941163 </v>
    <v>       0.63081166       0.56969810       0.28941163 </v>
    <v>       0.38081166       0.26151810       0.34492657 </v>
    <v>       0.88081166       0.26151810       0.34492657 </v>
    <v>       0.38081166       0.87787810       0.34492657 </v>
    <v>       0.88081166       0.87787810       0.34492657 </v>
    <v>       0.13081166       0.56969810       0.40044151 </v>
    <v>       0.63081166       0.56969810       0.40044151 </v>
    <v>       0.13081166       0.06969810       0.43411745 </v>
    <v>       0.63081166       0.06969810       0.43411745 </v>
    <v>       0.38081166       0.37787810       0.48963239 </v>
    <v>       0.88081166       0.37787810       0.48963239 </v>
    <v>       0.38081166       0.76151810       0.48963239 </v>
    <v>       0.88081166       0.76151810       0.48963239 </v>
    <v>       0.13081166       0.06969810       0.54514733 </v>
    <v>       0.63081166       0.06969810       0.54514733 </v>
    <v>       0.13081166       0.06969810       0.05551494 </v>
    <v>       0.63081166       0.06969810       0.05551494 </v>
    <v>       0.38081166       0.56969810       0.05551494 </v>
    <v>       0.88081166       0.56969810       0.05551494 </v>
    <v>       0.38081166       0.06969810       0.20022076 </v>
    <v>       0.88081166       0.06969810       0.20022076 </v>
    <v>       0.13081166       0.56969810       0.20022076 </v>
    <v>       0.63081166       0.56969810       0.20022076 </v>
    <v>       0.13081166       0.06969810       0.34492657 </v>
    <v>       0.63081166       0.06969810       0.34492657 </v>
    <v>       0.38081166       0.56969810       0.34492657 </v>
    <v>       0.88081166       0.56969810       0.34492657 </v>
    <v>       0.38081166       0.06969810       0.48963239 </v>
    <v>       0.88081166       0.06969810       0.48963239 </v>
    <v>       0.13081166       0.56969810       0.48963239 </v>
    <v>       0.63081166       0.56969810       0.48963239 </v>
   </varray>
  </structure>
  <varray name="forces" >
   <v>       1.23140777       1.23192643       0.00364716 </v>
   <v>       1.23138337       1.23190180       0.00361021 </v>
   <v>      -0.66663639      -0.14862271       0.00191363 </v>
   <v>      -0.66663551      -0.14857924       0.00187132 </v>
   <v>      -0.14681839      -0.66924410       0.00054542 </v>
   <v>      -0.14677268      -0.66924525       0.00050325 </v>
   <v>       0.29196864       0.29320426       0.00137913 </v>
   <v>       0.29205907       0.29329585       0.00137768 </v>
   <v>      -0.16489737      -0.16439672       0.00156014 </v>
   <v>      -0.16496852      -0.16446811       0.00217365 </v>
   <v>       0.10758211      -0.18445299       0.00219306 </v>
   <v>       0.10741376      -0.18424171       0.00198509 </v>
   <v>      -0.18292143       0.10638611       0.00067127 </v>
   <v>      -0.18270918       0.10621570       0.00046397 </v>
   <v>       0.03189414       0.03089336       0.00124562 </v>
   <v>       0.03195323       0.03095197       0.00172025 </v>
   <v>      -0.03313645      -0.03188533      -0.00085662 </v>
   <v>      -0.03322685      -0.03197712      -0.00070686 </v>
   <v>      -0.10513777       0.17841156       0.00063877 </v>
   <v>      -0.10511374       0.17835756       0.00053049 </v>
   <v>       0.18138914      -0.10696427       0.00211770 </v>
   <v>       0.18133398      -0.10693871       0.00200838 </v>
   <v>       0.16277782       0.16264467       0.00228508 </v>
   <v>       0.16277216       0.16263926       0.00244052 </v>
   <v>      -0.29065414      -0.28943534      -0.00238371 </v>
   <v>      -0.29072452      -0.28950916      -0.00239998 </v>
   <v>       0.66923607       0.15082673      -0.00186806 </v>
   <v>       0.66923959       0.15079665      -0.00172670 </v>
   <v>       0.14837457       0.66678111      -0.00039437 </v>
   <v>       0.14834182       0.66678630      -0.00025051 </v>
   <v>      -1.23534633      -1.23504766       0.00255183 </v>
   <v>      -1.23532863      -1.23502926       0.00250432 </v>
   <v>       1.25459485       1.25635971      -0.00244607 </v>
   <v>       1.25467638       1.25644058      -0.00235100 </v>
   <v>      -1.64089110      -1.63983369      -0.00301621 </v>
   <v>      -1.64087387      -1.63981576      -0.00302216 </v>
   <v>      -0.33028881      -0.32940388      -0.00320954 </v>
   <v>      -0.33038657      -0.32950083      -0.00321690 </v>
   <v>       0.01762876       0.01971355      -0.00180649 </v>
   <v>       0.01762591       0.01971064      -0.00193585 </v>
   <v>      -0.02030954      -0.01947513      -0.00213653 </v>
   <v>      -0.02032775      -0.01949279      -0.00214101 </v>
   <v>       0.33056372       0.33022353      -0.00296444 </v>
   <v>       0.33059083       0.33025010      -0.00295208 </v>
   <v>       1.64385887       1.64329214       0.00033106 </v>
   <v>       1.64380656       1.64324208       0.00038073 </v>
   <v>      -1.25416254      -1.25182350      -0.00044944 </v>
   <v>      -1.25420501      -1.25186836      -0.00041520 </v>
  </varray>
  <varray name="stress" >
   <v>      -7.77958117     -10.89851357       0.01215812 </v>
   <v>     -10.89851367      -7.79786002       0.04140599 </v>
   <v>       0.01215823       0.04140595     -36.20339838 </v>
  </varray>
  <energy>
   <i name="e_fr_energy">   -381.31332795 </i>
   <i name="e_wo_entrp">   -381.29705032 </i>
   <i name="e_0_energy">     -0.03255527 </i>
  </energy>
  <time name="totalsc"> 1034.04 1034.44</time>
 </calculation>
 <calculation>
  <scstep>
   <time name="dav">   27.28   27.29</time>
   <time name="total">   28.47   28.48</time>
   <energy>
    <i name="alphaZ">   1035.12072450 </i>
    <i name="ewald">  57886.80598475 </i>
    <i name="hartreedc"> -78828.61134850 </i>
    <i name="XCdc">    402.23134461 </i>
    <i name="pawpsdc">  30078.57813255 </i>
    <i name="pawaedc"> -29364.93187736 </i>
    <i name="eentropy">     -0.03407102 </i>
    <i name="bandstr">  -2098.58841464 </i>
    <i name="atom">  20516.95828776 </i>
    <i name="e_fr_energy">   -372.47123736 </i>
    <i name="e_wo_entrp">   -372.43716633 </i>
    <i name="e_0_energy">   -372.45420184 </i>
   </energy>
  </scstep>
  <scstep>
   <time name="diag">    4.46    4.46</time>
   <time name="diis">   14.96   14.96</time>
   <time name="orth">    0.88    0.88</time>
   <time name="total">   21.47   21.48</time>
   <energy>
    <i name="e_fr_energy">   -372.81653150 </i>
    <i name="e_wo_entrp">   -372.76970154 </i>
    <i name="e_0_energy">   -372.79311652 </i>
   </energy>
  </scstep>
  <scstep>
   <time name="diag">    4.46    4.46</time>
   <time name="diis">   15.00   15.01</time>
   <time name="orth">    0.88    0.88</time>
   <time name="total">   21.52   21.52</time>
   <energy>
    <i name="e_fr_energy">   -372.50281197 </i>
    <i name="e_wo_entrp">   -372.47105005 </i>
    <i name="e_0_energy">   -372.48693101 </i>
   </energy>
  </scstep>
  <scstep>
   <time name="diag">    4.46    4.46</time>
   <time name="diis">   14.89   14.90</time>
   <time name="orth">    0.88    0.88</time>
   <time name="total">   21.41   21.42</time>
   <energy>
    <i name="e_fr_energy">   -372.48901392 </i>
    <i name="e_wo_entrp">   -372.45534833 </i>
    <i name="e_0_energy">   -372.47218112 </i>
   </energy>
  </scstep>
  <scstep>
   <time name="diag">    4.46    4.46</time>
   <time name="diis">   14.84   14.84</time>
   <time name="orth">    0.88    0.88</time>
   <time name="total">   21.35   21.36</time>
   <energy>
    <i name="e_fr_energy">   -372.48147425 </i>
    <i name="e_wo_entrp">   -372.44910202 </i>
    <i name="e_0_energy">   -372.46528813 </i>
   </energy>
  </scstep>
  <scstep>
   <time name="diag">    4.46    4.46</time>
   <time name="diis">   14.92   14.93</time>
   <time name="orth">    0.88    0.88</time>
   <time name="total">   21.43   21.44</time>
   <energy>
    <i name="e_fr_energy">   -372.48073455 </i>
    <i name="e_wo_entrp">   -372.44942554 </i>
    <i name="e_0_energy">   -372.46508005 </i>
   </energy>
  </scstep>
  <scstep>
   <time name="diag">    4.46    4.46</time>
   <time name="diis">   14.84   14.85</time>
   <time name="orth">    0.88    0.88</time>
   <time name="total">   21.35   21.36</time>
   <energy>
    <i name="e_fr_energy">   -372.47399111 </i>
    <i name="e_wo_entrp">   -372.44010473 </i>
    <i name="e_0_energy">   -372.45704792 </i>
   </energy>
  </scstep>
  <scstep>
   <time name="diag">    4.46    4.46</time>
   <time name="diis">   14.03   14.03</time>
   <time name="orth">    0.88    0.88</time>
   <time name="total">   20.55   20.55</time>
   <energy>
    <i name="e_fr_energy">   -372.47320840 </i>
    <i name="e_wo_entrp">   -372.44129499 </i>
    <i name="e_0_energy">   -372.45725169 </i>
   </energy>
  </scstep>
  <scstep>
   <time name="diag">    4.45    4.46</time>
   <time name="diis">   13.19   13.19</time>
   <time name="orth">    0.88    0.88</time>
   <time name="total">   19.70   19.71</time>
   <energy>
    <i name="e_fr_energy">   -372.47349327 </i>
    <i name="e_wo_entrp">   -372.44058980 </i>
    <i name="e_0_energy">   -372.45704154 </i>
   </energy>
  </scstep>
  <scstep>
   <time name="diag">    4.46    4.46</time>
   <time name="diis">   10.42   10.42</time>
   <time name="orth">    0.88    0.88</time>
   <time name="total">   16.92   16.93</time>
   <energy>
    <i name="e_fr_energy">   -372.47421439 </i>
    <i name="e_wo_entrp">   -372.44163740 </i>
    <i name="e_0_energy">   -372.45792590 </i>
   </energy>
  </scstep>
  <scstep>
   <time name="diag">    4.45    4.45</time>
   <time name="diis">    9.79    9.79</time>
   <time name="orth">    0.88    0.88</time>
   <time name="total">   16.29   16.29</time>
   <energy>
    <i name="e_fr_energy">   -372.47521936 </i>
    <i name="e_wo_entrp">   -372.44269538 </i>
    <i name="e_0_energy">   -372.45895737 </i>
   </energy>
  </scstep>
  <scstep>
   <time name="diag">    4.44    4.44</time>
   <time name="diis">    9.75    9.76</time>
   <time name="orth">    0.88    0.88</time>
   <time name="total">   16.24   16.25</time>
   <energy>
    <i name="e_fr_energy">   -372.47555591 </i>
    <i name="e_wo_entrp">   -372.44310093 </i>
    <i name="e_0_energy">   -372.45932842 </i>
   </energy>
  </scstep>
  <scstep>
   <time name="diag">    4.44    4.45</time>
   <time name="diis">    9.40    9.40</time>
   <time name="orth">    0.88    0.88</time>
   <time name="total">   15.89   15.90</time>
   <energy>
    <i name="e_fr_energy">   -372.47539894 </i>
    <i name="e_wo_entrp">   -372.44290718 </i>
    <i name="e_0_energy">   -372.45915306 </i>
   </energy>
  </scstep>
  <scstep>
   <time name="diag">    4.45    4.45</time>
   <time name="diis">    8.77    8.77</time>
   <time name="orth">    0.88    0.88</time>
   <time name="total">   15.27   15.28</time>
   <energy>
    <i name="e_fr_energy">   -372.47525528 </i>
    <i name="e_wo_entrp">   -372.44283705 </i>
    <i name="e_0_energy">   -372.45904616 </i>
   </energy>
  </scstep>
  <scstep>
   <time name="diag">    4.44    4.44</time>
   <time name="diis">    8.49    8.49</time>
   <time name="orth">    0.88    0.88</time>
   <time name="total">   14.98   14.99</time>
   <energy>
    <i name="e_fr_energy">   -372.47512718 </i>
    <i name="e_wo_entrp">   -372.44273022 </i>
    <i name="e_0_energy">   -372.45892870 </i>
   </energy>
  </scstep>
  <scstep>
   <time name="diag">    4.44    4.44</time>
   <time name="diis">    7.90    7.90</time>
   <time name="orth">    0.88    0.88</time>
   <time name="total">   13.51   13.52</time>
   <energy>
    <i name="alphaZ">   1035.12072450 </i>
    <i name="ewald">  57886.80598475 </i>
    <i name="hartreedc"> -78835.50569715 </i>
    <i name="XCdc">    402.29369746 </i>
    <i name="pawpsdc">  30129.38624481 </i>
    <i name="pawaedc"> -29415.87729742 </i>
    <i name="eentropy">     -0.03237648 </i>
    <i name="bandstr">  -2091.62470407 </i>
    <i name="atom">  20516.95828776 </i>
    <i name="e_fr_energy">   -372.47513584 </i>
    <i name="e_wo_entrp">   -372.44275936 </i>
    <i name="e_0_energy">   -372.45894760 </i>
   </energy>
  </scstep>
  <structure>
   <crystal>
    <varray name="basis" >
     <v>       0.00000000       0.00000000       6.42203989 </v>
     <v>       4.49914758      -4.49914758       0.00000000 </v>
     <v>      15.54584216      15.54584216       0.00000000 </v>
    </varray>
    <i name="volume">    898.35396184 </i>
    <varray name="rec_basis" >
     <v>       0.00000000       0.00000000       0.15571376 </v>
     <v>       0.11113216      -0.11113216       0.00000000 </v>
     <v>       0.03216294       0.03216294       0.00000000 </v>
    </varray>
   </crystal>
   <varray name="positions" >
    <v>       0.13081166       0.56969810       0.00000000 </v>
    <v>       0.63081166       0.56969810       0.00000000 </v>
    <v>       0.38081166       0.26151810       0.05551494 </v>
    <v>       0.88081166       0.26151810       0.05551494 </v>
    <v>       0.38081166       0.87787810       0.05551494 </v>
    <v>       0.88081166       0.87787810       0.05551494 </v>
    <v>       0.13081166       0.56969810       0.11102988 </v>
    <v>       0.63081166       0.56969810       0.11102988 </v>
    <v>       0.13081166       0.06969810       0.14470582 </v>
    <v>       0.63081166       0.06969810       0.14470582 </v>
    <v>       0.38081166       0.37787810       0.20022076 </v>
    <v>       0.88081166       0.37787810       0.20022076 </v>
    <v>       0.38081166       0.76151810       0.20022076 </v>
    <v>       0.88081166       0.76151810       0.20022076 </v>
    <v>       0.13081166       0.06969810       0.25573570 </v>
    <v>       0.63081166       0.06969810       0.25573570 </v>
    <v>       0.13081037       0.56969675       0.28939146 </v>
    <v>       0.63081060       0.56969676       0.28939140 </v>
    <v>       0.38081262       0.26121406       0.34494931 </v>
    <v>       0.88081246       0.26121414       0.34494930 </v>
    <v>       0.38081484       0.87818729       0.34494967 </v>
    <v>       0.88081468       0.87818720       0.34494966 </v>
    <v>       0.13081509       0.56969824       0.40054250 </v>
    <v>       0.63081533       0.56969824       0.40054250 </v>
    <v>       0.13080808       0.06969679       0.43393743 </v>
    <v>       0.63080806       0.06969679       0.43393739 </v>
    <v>       0.38080885       0.37843397       0.48988688 </v>
    <v>       0.88080907       0.37843400       0.48988687 </v>
    <v>       0.38081107       0.76096223       0.48988535 </v>
    <v>       0.88081129       0.76096219       0.48988535 </v>
    <v>       0.13081550       0.06969778       0.54438070 </v>
    <v>       0.63081542       0.06969777       0.54438072 </v>
    <v>       0.13081166       0.06969810       0.05551494 </v>
    <v>       0.63081166       0.06969810       0.05551494 </v>
    <v>       0.38081166       0.56969810       0.05551494 </v>
    <v>       0.88081166       0.56969810       0.05551494 </v>
    <v>       0.38081166       0.06969810       0.20022076 </v>
    <v>       0.88081166       0.06969810       0.20022076 </v>
    <v>       0.13081166       0.56969810       0.20022076 </v>
    <v>       0.63081166       0.56969810       0.20022076 </v>
    <v>       0.13080845       0.06969720       0.34491423 </v>
    <v>       0.63080844       0.06969720       0.34491422 </v>
    <v>       0.38080721       0.56969846       0.34513163 </v>
    <v>       0.88080723       0.56969846       0.34513165 </v>
    <v>       0.38081216       0.06969870       0.49065248 </v>
    <v>       0.88081223       0.06969870       0.49065244 </v>
    <v>       0.13081099       0.56969559       0.48885472 </v>
    <v>       0.63081104       0.56969559       0.48885469 </v>
   </varray>
  </structure>
  <varray name="forces" >
   <v>       1.22642875       1.22698546       0.00349698 </v>
   <v>       1.22636381       1.22691997       0.00350218 </v>
   <v>      -0.66462357      -0.15174892       0.00281751 </v>
   <v>      -0.66462184      -0.15174647       0.00071109 </v>
   <v>      -0.14998970      -0.66719215       0.00144846 </v>
   <v>      -0.14998672      -0.66719018      -0.00065883 </v>
   <v>       0.29391694       0.29516954       0.00125501 </v>
   <v>       0.29376621       0.29501887       0.00125780 </v>
   <v>      -0.15887908      -0.15833391       0.00171123 </v>
   <v>      -0.16034187      -0.15979629       0.00174375 </v>
   <v>       0.11041801      -0.18719747       0.00172721 </v>
   <v>       0.11041052      -0.18718790       0.00218817 </v>
   <v>      -0.18567451       0.10926327       0.00020641 </v>
   <v>      -0.18566491       0.10925563       0.00066725 </v>
   <v>       0.04513053       0.04417766       0.00129719 </v>
   <v>       0.04513443       0.04418176       0.00132801 </v>
   <v>       0.02233101       0.02338489      -0.00130862 </v>
   <v>       0.02242737       0.02348143      -0.00133469 </v>
   <v>      -0.07232332       0.14958325       0.00076401 </v>
   <v>      -0.07233340       0.14960534       0.00079559 </v>
   <v>       0.15271730      -0.07387951       0.00074064 </v>
   <v>       0.15273977      -0.07388994       0.00077246 </v>
   <v>       0.03613796       0.03531490       0.00160840 </v>
   <v>       0.03588341       0.03506027       0.00158462 </v>
   <v>      -0.15543477      -0.15296057      -0.00160595 </v>
   <v>      -0.15532602      -0.15285140      -0.00145003 </v>
   <v>       0.57484212       0.16052804      -0.00257094 </v>
   <v>       0.57480309       0.16056283      -0.00222973 </v>
   <v>       0.15687762       0.57273356       0.00091538 </v>
   <v>       0.15691310       0.57269438       0.00125644 </v>
   <v>      -0.87805216      -0.87872261       0.00199285 </v>
   <v>      -0.87808150      -0.87875220       0.00223046 </v>
   <v>       1.25439989       1.25620461      -0.00252850 </v>
   <v>       1.25691046       1.25871546      -0.00252316 </v>
   <v>      -1.63566601      -1.63457297      -0.00322538 </v>
   <v>      -1.63567130      -1.63457840      -0.00305723 </v>
   <v>      -0.34568007      -0.34477913      -0.00302763 </v>
   <v>      -0.34568700      -0.34478593      -0.00359618 </v>
   <v>       0.02776780       0.02992610      -0.00196795 </v>
   <v>       0.02780457       0.02996293      -0.00197181 </v>
   <v>       0.02043696       0.02046813      -0.00117472 </v>
   <v>       0.02043371       0.02046452      -0.00117823 </v>
   <v>       0.18561394       0.18556341      -0.00107309 </v>
   <v>       0.18560857       0.18555861      -0.00107294 </v>
   <v>       1.11789637       1.11802222       0.00174604 </v>
   <v>       1.11807400       1.11819955       0.00165615 </v>
   <v>      -0.97925693      -0.97860252      -0.00190226 </v>
   <v>      -0.97889353      -0.97823808      -0.00196344 </v>
  </varray>
  <varray name="stress" >
   <v>      -5.96636487      -9.67161712       0.01394914 </v>
   <v>      -9.67161698      -5.96904152       0.02351134 </v>
   <v>       0.01394925       0.02351135     -35.06460890 </v>
  </varray>
  <energy>
   <i name="e_fr_energy">   -381.52990024 </i>
   <i name="e_wo_entrp">   -381.51371200 </i>
   <i name="e_0_energy">     -0.03237648 </i>
  </energy>
  <time name="totalsc">  335.70  335.84</time>
 </calculation>
 <calculation>
  <scstep>
   <time name="dav">   27.04   27.05</time>
   <time name="total">   28.21   28.22</time>
   <energy>
    <i name="alphaZ">   1035.12072450 </i>
    <i name="ewald">  57910.51402108 </i>
    <i name="hartreedc"> -78854.41767040 </i>
    <i name="XCdc">    402.60775616 </i>
    <i name="pawpsdc">  30129.38524846 </i>
    <i name="pawaedc"> -29415.87642085 </i>
    <i name="eentropy">     -0.04037560 </i>
    <i name="bandstr">  -2096.96344381 </i>
    <i name="atom">  20516.95828776 </i>
    <i name="e_fr_energy">   -372.71187270 </i>
    <i name="e_wo_entrp">   -372.67149710 </i>
    <i name="e_0_energy">   -372.69168490 </i>
   </energy>
  </scstep>
  <scstep>
   <time name="diag">    4.47    4.47</time>
   <time name="diis">   15.07   15.07</time>
   <time name="orth">    0.88    0.88</time>
   <time name="total">   21.59   21.60</time>
   <energy>
    <i name="e_fr_energy">   -378.43219136 </i>
    <i name="e_wo_entrp">   -378.39788851 </i>
    <i name="e_0_energy">   -378.41503994 </i>
   </energy>
  </scstep>
  <scstep>
   <time name="diag">    4.47    4.47</time>
   <time name="diis">   15.11   15.12</time>
   <time name="orth">    0.88    0.88</time>
   <time name="total">   21.63   21.64</time>
   <energy>
    <i name="e_fr_energy">   -373.40874158 </i>
    <i name="e_wo_entrp">   -373.37376558 </i>
    <i name="e_0_energy">   -373.39125358 </i>
   </energy>
  </scstep>
  <scstep>
   <time name="diag">    4.47    4.47</time>
   <time name="diis">   15.06   15.06</time>
   <time name="orth">    0.88    0.88</time>
   <time name="total">   21.58   21.59</time>
   <energy>
    <i name="e_fr_energy">   -372.99581974 </i>
    <i name="e_wo_entrp">   -372.95347893 </i>
    <i name="e_0_energy">   -372.97464934 </i>
   </energy>
  </scstep>
  <scstep>
   <time name="diag">    4.47    4.47</time>
   <time name="diis">   15.07   15.07</time>
   <time name="orth">    0.88    0.88</time>
   <time name="total">   21.59   21.60</time>
   <energy>
    <i name="e_fr_energy">   -372.78699262 </i>
    <i name="e_wo_entrp">   -372.75113331 </i>
    <i name="e_0_energy">   -372.76906296 </i>
   </energy>
  </scstep>
  <scstep>
   <time name="diag">    4.47    4.47</time>
   <time name="diis">   15.07   15.07</time>
   <time name="orth">    0.88    0.88</time>
   <time name="total">   21.59   21.60</time>
   <energy>
    <i name="e_fr_energy">   -372.75081185 </i>
    <i name="e_wo_entrp">   -372.70617752 </i>
    <i name="e_0_energy">   -372.72849468 </i>
   </energy>
  </scstep>
  <scstep>
   <time name="diag">    4.47    4.47</time>
   <time name="diis">   15.08   15.08</time>
   <time name="orth">    0.88    0.88</time>
   <time name="total">   21.59   21.60</time>
   <energy>
    <i name="e_fr_energy">   -372.74408306 </i>
    <i name="e_wo_entrp">   -372.71209877 </i>
    <i name="e_0_energy">   -372.72809092 </i>
   </energy>
  </scstep>
  <scstep>
   <time name="diag">    4.47    4.47</time>
   <time name="diis">   15.09   15.10</time>
   <time name="orth">    0.88    0.88</time>
   <time name="total">   21.61   21.61</time>
   <energy>
    <i name="e_fr_energy">   -372.70204964 </i>
    <i name="e_wo_entrp">   -372.66934600 </i>
    <i name="e_0_energy">   -372.68569782 </i>
   </energy>
  </scstep>
  <scstep>
   <time name="diag">    4.47    4.47</time>
   <time name="diis">   15.10   15.10</time>
   <time name="orth">    0.88    0.88</time>
   <time name="total">   21.61   21.63</time>
   <energy>
    <i name="e_fr_energy">   -372.68686536 </i>
    <i name="e_wo_entrp">   -372.65601451 </i>
    <i name="e_0_energy">   -372.67143993 </i>
   </energy>
  </scstep>
  <scstep>
   <time name="diag">    4.47    4.47</time>
   <time name="diis">   14.83   14.83</time>
   <time name="orth">    0.88    0.88</time>
   <time name="total">   21.34   21.35</time>
   <energy>
    <i name="e_fr_energy">   -372.68502994 </i>
    <i name="e_wo_entrp">   -372.65412687 </i>
    <i name="e_0_energy">   -372.66957840 </i>
   </energy>
  </scstep>
  <scstep>
   <time name="diag">    4.47    4.47</time>
   <time name="diis">   14.70   14.71</time>
   <time name="orth">    0.88    0.88</time>
   <time name="total">   21.22   21.23</time>
   <energy>
    <i name="e_fr_energy">   -372.68048162 </i>
    <i name="e_wo_entrp">   -372.64893038 </i>
    <i name="e_0_energy">   -372.66470600 </i>
   </energy>
  </scstep>
  <scstep>
   <time name="diag">    4.48    4.48</time>
   <time name="diis">   14.27   14.27</time>
   <time name="orth">    0.88    0.88</time>
   <time name="total">   20.79   20.80</time>
   <energy>
    <i name="e_fr_energy">   -372.68106001 </i>
    <i name="e_wo_entrp">   -372.64974189 </i>
    <i name="e_0_energy">   -372.66540095 </i>
   </energy>
  </scstep>
  <scstep>
   <time name="diag">    4.47    4.47</time>
   <time name="diis">   13.71   13.72</time>
   <time name="orth">    0.88    0.88</time>
   <time name="total">   20.23   20.24</time>
   <energy>
    <i name="e_fr_energy">   -372.68442628 </i>
    <i name="e_wo_entrp">   -372.65308463 </i>
    <i name="e_0_energy">   -372.66875546 </i>
   </energy>
  </scstep>
  <scstep>
   <time name="diag">    4.47    4.47</time>
   <time name="diis">   11.06   11.06</time>
   <time name="orth">    0.88    0.88</time>
   <time name="total">   17.57   17.58</time>
   <energy>
    <i name="e_fr_energy">   -372.68844458 </i>
    <i name="e_wo_entrp">   -372.65711279 </i>
    <i name="e_0_energy">   -372.67277869 </i>
   </energy>
  </scstep>
  <scstep>
   <time name="diag">    4.45    4.45</time>
   <time name="diis">    9.77    9.78</time>
   <time name="orth">    0.88    0.88</time>
   <time name="total">   16.27   16.27</time>
   <energy>
    <i name="e_fr_energy">   -372.69191427 </i>
    <i name="e_wo_entrp">   -372.66058411 </i>
    <i name="e_0_energy">   -372.67624919 </i>
   </energy>
  </scstep>
  <scstep>
   <time name="diag">    4.45    4.45</time>
   <time name="diis">    9.46    9.46</time>
   <time name="orth">    0.88    0.88</time>
   <time name="total">   15.95   15.95</time>
   <energy>
    <i name="e_fr_energy">   -372.69431234 </i>
    <i name="e_wo_entrp">   -372.66301597 </i>
    <i name="e_0_energy">   -372.67866415 </i>
   </energy>
  </scstep>
  <scstep>
   <time name="diag">    4.46    4.46</time>
   <time name="diis">   10.03   10.03</time>
   <time name="orth">    0.88    0.88</time>
   <time name="total">   16.54   16.55</time>
   <energy>
    <i name="e_fr_energy">   -372.69859818 </i>
    <i name="e_wo_entrp">   -372.66737401 </i>
    <i name="e_0_energy">   -372.68298610 </i>
   </energy>
  </scstep>
  <scstep>
   <time name="diag">    4.45    4.45</time>
   <time name="diis">    9.34    9.34</time>
   <time name="orth">    0.88    0.88</time>
   <time name="total">   15.83   15.84</time>
   <energy>
    <i name="e_fr_energy">   -372.70029848 </i>
    <i name="e_wo_entrp">   -372.66901512 </i>
    <i name="e_0_energy">   -372.68465680 </i>
   </energy>
  </scstep>
  <scstep>
   <time name="diag">    4.45    4.45</time>
   <time name="diis">    9.83    9.84</time>
   <time name="orth">    0.88    0.88</time>
   <time name="total">   16.33   16.34</time>
   <energy>
    <i name="e_fr_energy">   -372.70265640 </i>
    <i name="e_wo_entrp">   -372.67145148 </i>
    <i name="e_0_energy">   -372.68705394 </i>
   </energy>
  </scstep>
  <scstep>
   <time name="diag">    4.45    4.45</time>
   <time name="diis">    9.31    9.31</time>
   <time name="orth">    0.88    0.88</time>
   <time name="total">   15.81   15.82</time>
   <energy>
    <i name="e_fr_energy">   -372.70393252 </i>
    <i name="e_wo_entrp">   -372.67274952 </i>
    <i name="e_0_energy">   -372.68834102 </i>
   </energy>
  </scstep>
  <scstep>
   <time name="diag">    4.46    4.46</time>
   <time name="diis">    9.09    9.10</time>
   <time name="orth">    0.88    0.88</time>
   <time name="total">   15.60   15.61</time>
   <energy>
    <i name="e_fr_energy">   -372.70471303 </i>
    <i name="e_wo_entrp">   -372.67352106 </i>
    <i name="e_0_energy">   -372.68911705 </i>
   </energy>
  </scstep>
  <scstep>
   <time name="diag">    4.45    4.45</time>
   <time name="diis">    8.93    8.93</time>
   <time name="orth">    0.88    0.88</time>
   <time name="total">   15.42   15.43</time>
   <energy>
    <i name="e_fr_energy">   -372.70539205 </i>
    <i name="e_wo_entrp">   -372.67419550 </i>
    <i name="e_0_energy">   -372.68979378 </i>
   </energy>
  </scstep>
  <scstep>
   <time name="diag">    4.45    4.45</time>
   <time name="diis">    8.34    8.34</time>
   <time name="orth">    0.88    0.88</time>
   <time name="total">   14.84   14.85</time>
   <energy>
    <i name="e_fr_energy">   -372.70574448 </i>
    <i name="e_wo_entrp">   -372.67454034 </i>
    <i name="e_0_energy">   -372.69014241 </i>
   </energy>
  </scstep>
  <scstep>
   <time name="diag">    4.45    4.45</time>
   <time name="diis">    8.06    8.07</time>
   <time name="orth">    0.88    0.88</time>
   <time name="total">   14.56   14.57</time>
   <energy>
    <i name="e_fr_energy">   -372.70603143 </i>
    <i name="e_wo_entrp">   -372.67481840 </i>
    <i name="e_0_energy">   -372.69042492 </i>
   </energy>
  </scstep>
  <scstep>
   <time name="diag">    4.45    4.45</time>
   <time name="diis">    7.96    7.96</time>
   <time name="orth">    0.88    0.88</time>
   <time name="total">   14.46   14.46</time>
   <energy>
    <i name="e_fr_energy">   -372.70627003 </i>
    <i name="e_wo_entrp">   -372.67505193 </i>
    <i name="e_0_energy">   -372.69066098 </i>
   </energy>
  </scstep>
  <scstep>
   <time name="diag">    4.45    4.45</time>
   <time name="diis">    7.58    7.58</time>
   <time name="orth">    0.88    0.88</time>
   <time name="total">   14.07   14.08</time>
   <energy>
    <i name="e_fr_energy">   -372.70637190 </i>
    <i name="e_wo_entrp">   -372.67515079 </i>
    <i name="e_0_energy">   -372.69076135 </i>
   </energy>
  </scstep>
  <scstep>
   <time name="diag">    4.46    4.46</time>
   <time name="diis">    7.69    7.69</time>
   <time name="orth">    0.88    0.88</time>
   <time name="total">   13.31   13.32</time>
   <energy>
    <i name="alphaZ">   1035.12072450 </i>
    <i name="ewald">  57910.51402108 </i>
    <i name="hartreedc"> -78874.76504514 </i>
    <i name="XCdc">    402.82799653 </i>
    <i name="pawpsdc">  30293.19658574 </i>
    <i name="pawaedc"> -29580.09664741 </i>
    <i name="eentropy">     -0.03122560 </i>
    <i name="bandstr">  -2076.43112948 </i>
    <i name="atom">  20516.95828776 </i>
    <i name="e_fr_energy">   -372.70643201 </i>
    <i name="e_wo_entrp">   -372.67520641 </i>
    <i name="e_0_energy">   -372.69081921 </i>
   </energy>
  </scstep>
  <structure>
   <crystal>
    <varray name="basis" >
     <v>       0.00000000       0.00000000       6.42203989 </v>
     <v>       4.49914758      -4.49914758       0.00000000 </v>
     <v>      15.54584216      15.54584216       0.00000000 </v>
    </varray>
    <i name="volume">    898.35396184 </i>
    <varray name="rec_basis" >
     <v>       0.00000000       0.00000000       0.15571376 </v>
     <v>       0.11113216      -0.11113216       0.00000000 </v>
     <v>       0.03216294       0.03216294       0.00000000 </v>
    </varray>
   </crystal>
   <varray name="positions" >
    <v>       0.13081166       0.56969810       0.00000000 </v>
    <v>       0.63081166       0.56969810       0.00000000 </v>
    <v>       0.38081166       0.26151810       0.05551494 </v>
    <v>       0.88081166       0.26151810       0.05551494 </v>
    <v>       0.38081166       0.87787810       0.05551494 </v>
    <v>       0.88081166       0.87787810       0.05551494 </v>
    <v>       0.13081166       0.56969810       0.11102988 </v>
    <v>       0.63081166       0.56969810       0.11102988 </v>
    <v>       0.13081166       0.06969810       0.14470582 </v>
    <v>       0.63081166       0.06969810       0.14470582 </v>
    <v>       0.38081166       0.37787810       0.20022076 </v>
    <v>       0.88081166       0.37787810       0.20022076 </v>
    <v>       0.38081166       0.76151810       0.20022076 </v>
    <v>       0.88081166       0.76151810       0.20022076 </v>
    <v>       0.13081166       0.06969810       0.25573570 </v>
    <v>       0.63081166       0.06969810       0.25573570 </v>
    <v>       0.13080707       0.56969331       0.28933958 </v>
    <v>       0.63080787       0.56969331       0.28933938 </v>
    <v>       0.38081509       0.26043244       0.34500777 </v>
    <v>       0.88081451       0.26043274       0.34500774 </v>
    <v>       0.38082302       0.87898214       0.34500904 </v>
    <v>       0.88082244       0.87898183       0.34500901 </v>
    <v>       0.13082392       0.56969861       0.40080211 </v>
    <v>       0.63082475       0.56969860       0.40080210 </v>
    <v>       0.13079887       0.06969343       0.43347465 </v>
    <v>       0.63079879       0.06969344       0.43347449 </v>
    <v>       0.38080164       0.37986298       0.49054110 </v>
    <v>       0.88080240       0.37986311       0.49054107 </v>
    <v>       0.38080955       0.75953322       0.49053566 </v>
    <v>       0.88081032       0.75953308       0.49053563 </v>
    <v>       0.13082535       0.06969695       0.54240989 </v>
    <v>       0.63082510       0.06969695       0.54240993 </v>
    <v>       0.13081166       0.06969810       0.05551494 </v>
    <v>       0.63081166       0.06969810       0.05551494 </v>
    <v>       0.38081166       0.56969810       0.05551494 </v>
    <v>       0.88081166       0.56969810       0.05551494 </v>
    <v>       0.38081166       0.06969810       0.20022076 </v>
    <v>       0.88081166       0.06969810       0.20022076 </v>
    <v>       0.13081166       0.56969810       0.20022076 </v>
    <v>       0.63081166       0.56969810       0.20022076 </v>
    <v>       0.13080020       0.06969490       0.34488249 </v>
    <v>       0.63080018       0.06969490       0.34488245 </v>
    <v>       0.38079576       0.56969940       0.34565879 </v>
    <v>       0.88079582       0.56969940       0.34565885 </v>
    <v>       0.38081344       0.06970027       0.49327488 </v>
    <v>       0.88081370       0.06970026       0.49327477 </v>
    <v>       0.13080925       0.56968914       0.48685551 </v>
    <v>       0.63080943       0.56968915       0.48685541 </v>
   </varray>
  </structure>
  <varray name="forces" >
   <v>       1.21294389       1.21342781       0.00386685 </v>
   <v>       1.21294481       1.21342866       0.00342353 </v>
   <v>      -0.66030444      -0.15813532       0.00183230 </v>
   <v>      -0.66035099      -0.15809745       0.00200812 </v>
   <v>      -0.15629261      -0.66293521       0.00046323 </v>
   <v>      -0.15625468      -0.66298164       0.00063942 </v>
   <v>       0.29576456       0.29691611       0.00155067 </v>
   <v>       0.29583210       0.29698407       0.00126872 </v>
   <v>      -0.14454531      -0.14406160       0.00184208 </v>
   <v>      -0.14438990      -0.14390622       0.00185832 </v>
   <v>       0.11571640      -0.19218972       0.00212421 </v>
   <v>       0.11569906      -0.19216358       0.00207861 </v>
   <v>      -0.19057997       0.11455979       0.00059552 </v>
   <v>      -0.19055425       0.11454311       0.00054990 </v>
   <v>       0.07802730       0.07704790       0.00135045 </v>
   <v>       0.07801694       0.07703768       0.00136237 </v>
   <v>       0.16401159       0.16402025      -0.00155427 </v>
   <v>       0.16405797       0.16406725      -0.00169937 </v>
   <v>       0.02806962       0.07217220       0.00009964 </v>
   <v>       0.02802526       0.07223828       0.00014758 </v>
   <v>       0.07305363       0.02696324      -0.00194714 </v>
   <v>       0.07312053       0.02691750      -0.00189852 </v>
   <v>      -0.41034600      -0.41036180       0.00098306 </v>
   <v>      -0.41048715      -0.41050325       0.00083626 </v>
   <v>       0.23020689       0.23015146       0.00058637 </v>
   <v>       0.23022450       0.23017091       0.00060602 </v>
   <v>       0.34943631       0.16196584      -0.00058039 </v>
   <v>       0.34941335       0.16200248      -0.00050075 </v>
   <v>       0.16078427       0.35194071       0.00188616 </v>
   <v>       0.16082393       0.35191561       0.00196492 </v>
   <v>       0.06870891       0.06945160      -0.00061513 </v>
   <v>       0.06868664       0.06942905      -0.00056667 </v>
   <v>       1.24767133       1.24940390      -0.00240693 </v>
   <v>       1.24746401       1.24919625      -0.00232157 </v>
   <v>      -1.62428156      -1.62323665      -0.00298087 </v>
   <v>      -1.62400043      -1.62295568      -0.00297350 </v>
   <v>      -0.37075921      -0.36998151      -0.00311791 </v>
   <v>      -0.37076537      -0.36998806      -0.00309619 </v>
   <v>       0.04832791       0.05052824      -0.00175208 </v>
   <v>       0.04829035       0.05049053      -0.00173995 </v>
[...]
       <r>   -20.6080     0.0000     0.0000 </r>
       <r>   -20.5025     0.0000     0.0000 </r>
       <r>   -20.3970     0.0000     0.0000 </r>
       <r>   -20.2915     0.0000     0.0000 </r>
       <r>   -20.1860     0.0133     0.0014 </r>
       <r>   -20.0804     0.5548     0.0599 </r>
       <r>   -19.9749     1.8656     0.2568 </r>
       <r>   -19.8694     3.1540     0.5896 </r>
       <r>   -19.7639     2.6376     0.8679 </r>
       <r>   -19.6584     3.6074     1.2485 </r>
       <r>   -19.5529     6.1794     1.9005 </r>
       <r>   -19.4474     5.2663     2.4562 </r>
       <r>   -19.3419     9.5682     3.4657 </r>
       <r>   -19.2363    13.7418     4.9157 </r>
       <r>   -19.1308    10.1568     5.9873 </r>
       <r>   -19.0253    13.2316     7.3835 </r>
       <r>   -18.9198    14.5816     8.9220 </r>
       <r>   -18.8143    19.9103    11.0228 </r>
       <r>   -18.7088    24.9902    13.6596 </r>
       <r>   -18.6033    18.8367    15.6471 </r>
       <r>   -18.4978    12.5100    16.9671 </r>
       <r>   -18.3922    27.0195    19.8180 </r>
       <r>   -18.2867    33.4493    23.3473 </r>
       <r>   -18.1812    23.0631    25.7808 </r>
       <r>   -18.0757    13.6638    27.2225 </r>
       <r>   -17.9702     4.8649    27.7358 </r>
       <r>   -17.8647     2.1929    27.9671 </r>
       <r>   -17.7592     0.3108    27.9999 </r>
       <r>   -17.6537     0.0068    28.0007 </r>
       <r>   -17.5481     3.7954    28.4011 </r>
       <r>   -17.4426     8.5184    29.2999 </r>
       <r>   -17.3371     5.3085    29.8600 </r>
       <r>   -17.2316     1.3231    29.9996 </r>
       <r>   -17.1261     0.0034    30.0000 </r>
       <r>   -17.0206     0.0000    30.0000 </r>
       <r>   -16.9151     0.0000    30.0000 </r>
       <r>   -16.8096     0.0110    30.0012 </r>
       <r>   -16.7040     4.5466    30.4809 </r>
       <r>   -16.5985    13.5340    31.9089 </r>
       <r>   -16.4930     0.8633    32.0000 </r>
       <r>   -16.3875     0.0001    32.0000 </r>
       <r>   -16.2820     0.0000    32.0000 </r>
       <r>   -16.1765     0.0000    32.0000 </r>
       <r>   -16.0710     0.0000    32.0000 </r>
       <r>   -15.9654     0.0000    32.0000 </r>
       <r>   -15.8599     0.0000    32.0000 </r>
       <r>   -15.7544     0.0000    32.0000 </r>
       <r>   -15.6489     0.0000    32.0000 </r>
       <r>   -15.5434     0.0000    32.0000 </r>
       <r>   -15.4379     0.0000    32.0000 </r>
       <r>   -15.3324     0.0000    32.0000 </r>
       <r>   -15.2269     0.0000    32.0000 </r>
       <r>   -15.1213     0.0000    32.0000 </r>
       <r>   -15.0158     0.0000    32.0000 </r>
       <r>   -14.9103     0.0000    32.0000 </r>
       <r>   -14.8048     0.0000    32.0000 </r>
       <r>   -14.6993     0.0000    32.0000 </r>
       <r>   -14.5938     0.0000    32.0000 </r>
       <r>   -14.4883     0.0000    32.0000 </r>
       <r>   -14.3828     0.0000    32.0000 </r>
       <r>   -14.2772     0.0000    32.0000 </r>
       <r>   -14.1717     0.0000    32.0000 </r>
       <r>   -14.0662     0.0000    32.0000 </r>
       <r>   -13.9607     0.0000    32.0000 </r>
       <r>   -13.8552     0.0000    32.0000 </r>
       <r>   -13.7497     0.0000    32.0000 </r>
       <r>   -13.6442     0.0000    32.0000 </r>
       <r>   -13.5387     0.0000    32.0000 </r>
       <r>   -13.4331     0.0000    32.0000 </r>
       <r>   -13.3276     0.0000    32.0000 </r>
       <r>   -13.2221     0.0000    32.0000 </r>
       <r>   -13.1166     0.0000    32.0000 </r>
       <r>   -13.0111     0.0000    32.0000 </r>
       <r>   -12.9056     0.0000    32.0000 </r>
       <r>   -12.8001     0.0000    32.0000 </r>
       <r>   -12.6946     0.0000    32.0000 </r>
       <r>   -12.5890     0.0000    32.0000 </r>
       <r>   -12.4835     0.0000    32.0000 </r>
       <r>   -12.3780     0.0000    32.0000 </r>
       <r>   -12.2725     0.0000    32.0000 </r>
       <r>   -12.1670     0.0000    32.0000 </r>
       <r>   -12.0615     0.0000    32.0000 </r>
       <r>   -11.9560     0.0000    32.0000 </r>
       <r>   -11.8504     0.0000    32.0000 </r>
       <r>   -11.7449     0.0000    32.0000 </r>
       <r>   -11.6394     0.0000    32.0000 </r>
       <r>   -11.5339     0.0000    32.0000 </r>
       <r>   -11.4284     0.0000    32.0000 </r>
       <r>   -11.3229     0.0000    32.0000 </r>
       <r>   -11.2174     0.0000    32.0000 </r>
       <r>   -11.1119     0.0000    32.0000 </r>
       <r>   -11.0063     0.0000    32.0000 </r>
       <r>   -10.9008     0.0000    32.0000 </r>
       <r>   -10.7953     0.0000    32.0000 </r>
       <r>   -10.6898     0.0000    32.0000 </r>
       <r>   -10.5843     0.0000    32.0000 </r>
       <r>   -10.4788     0.0000    32.0000 </r>
       <r>   -10.3733     0.0000    32.0000 </r>
       <r>   -10.2678     0.0000    32.0000 </r>
       <r>   -10.1622     0.0000    32.0000 </r>
       <r>   -10.0567     0.0000    32.0000 </r>
       <r>    -9.9512     0.0000    32.0000 </r>
       <r>    -9.8457     0.0000    32.0000 </r>
       <r>    -9.7402     0.0000    32.0000 </r>
       <r>    -9.6347     0.0000    32.0000 </r>
       <r>    -9.5292     0.0000    32.0000 </r>
       <r>    -9.4237     0.0000    32.0000 </r>
       <r>    -9.3181     0.0000    32.0000 </r>
       <r>    -9.2126     0.0000    32.0000 </r>
       <r>    -9.1071     0.0000    32.0000 </r>
       <r>    -9.0016     0.0000    32.0000 </r>
       <r>    -8.8961     0.0000    32.0000 </r>
       <r>    -8.7906     0.0000    32.0000 </r>
       <r>    -8.6851     0.0000    32.0000 </r>
       <r>    -8.5796     0.0000    32.0000 </r>
       <r>    -8.4740     0.0005    32.0001 </r>
       <r>    -8.3685     0.3384    32.0358 </r>
       <r>    -8.2630     1.6999    32.2151 </r>
       <r>    -8.1575     3.7930    32.6153 </r>
       <r>    -8.0520     4.8235    33.1243 </r>
       <r>    -7.9465     4.7969    33.6304 </r>
       <r>    -7.8410     2.1885    33.8613 </r>
       <r>    -7.7355     7.4169    34.6439 </r>
       <r>    -7.6299     9.4487    35.6409 </r>
       <r>    -7.5244    10.2471    36.7221 </r>
       <r>    -7.4189     1.2948    36.8587 </r>
       <r>    -7.3134     7.1364    37.6116 </r>
       <r>    -7.2079    12.5076    38.9314 </r>
       <r>    -7.1024    10.5887    40.0486 </r>
       <r>    -6.9969    10.5972    41.1668 </r>
       <r>    -6.8913    14.4354    42.6899 </r>
       <r>    -6.7858    22.9812    45.1147 </r>
       <r>    -6.6803    20.9127    47.3212 </r>
       <r>    -6.5748    27.6091    50.2344 </r>
       <r>    -6.4693    32.8821    53.7038 </r>
       <r>    -6.3638    29.8890    56.8575 </r>
       <r>    -6.2583    24.6376    59.4571 </r>
       <r>    -6.1528    13.2502    60.8552 </r>
       <r>    -6.0472    17.9039    62.7442 </r>
       <r>    -5.9417    10.3796    63.8394 </r>
       <r>    -5.8362    10.3443    64.9309 </r>
       <r>    -5.7307    11.1566    66.1081 </r>
       <r>    -5.6252     8.3064    66.9845 </r>
       <r>    -5.5197    11.0164    68.1469 </r>
       <r>    -5.4142    11.6581    69.3769 </r>
       <r>    -5.3087    13.9859    70.8526 </r>
       <r>    -5.2031    14.1069    72.3411 </r>
       <r>    -5.0976    10.0850    73.4052 </r>
       <r>    -4.9921    12.7929    74.7550 </r>
       <r>    -4.8866    12.4931    76.0732 </r>
       <r>    -4.7811    13.5542    77.5033 </r>
       <r>    -4.6756    15.8941    79.1804 </r>
       <r>    -4.5701    12.2822    80.4763 </r>
       <r>    -4.4646    18.7842    82.4583 </r>
       <r>    -4.3590    21.6559    84.7432 </r>
       <r>    -4.2535    17.0736    86.5447 </r>
       <r>    -4.1480    15.5129    88.1815 </r>
       <r>    -4.0425    21.3902    90.4385 </r>
       <r>    -3.9370    27.2511    93.3138 </r>
       <r>    -3.8315    21.2536    95.5563 </r>
       <r>    -3.7260    23.9647    98.0849 </r>
       <r>    -3.6205    20.8795   100.2880 </r>
       <r>    -3.5149    13.6920   101.7327 </r>
       <r>    -3.4094    17.2225   103.5499 </r>
       <r>    -3.3039    17.8529   105.4336 </r>
       <r>    -3.1984    11.6329   106.6610 </r>
       <r>    -3.0929    13.2415   108.0581 </r>
       <r>    -2.9874    17.2084   109.8738 </r>
       <r>    -2.8819    15.3244   111.4908 </r>
       <r>    -2.7763    10.6769   112.6173 </r>
       <r>    -2.6708    17.8798   114.5038 </r>
       <r>    -2.5653    16.3478   116.2287 </r>
       <r>    -2.4598     7.6501   117.0359 </r>
       <r>    -2.3543    13.6220   118.4732 </r>
       <r>    -2.2488    22.5762   120.8553 </r>
       <r>    -2.1433     9.6437   121.8728 </r>
       <r>    -2.0378     9.2221   122.8459 </r>
       <r>    -1.9322     7.4177   123.6286 </r>
       <r>    -1.8267     5.9388   124.2552 </r>
       <r>    -1.7212    16.5559   126.0020 </r>
       <r>    -1.6157     6.8026   126.7198 </r>
       <r>    -1.5102     4.5430   127.1991 </r>
       <r>    -1.4047     5.3744   127.7662 </r>
       <r>    -1.2992     1.6343   127.9386 </r>
       <r>    -1.1937     0.5174   127.9932 </r>
       <r>    -1.0881     0.0641   128.0000 </r>
       <r>    -0.9826     0.0000   128.0000 </r>
       <r>    -0.8771     0.0000   128.0000 </r>
       <r>    -0.7716     0.0077   128.0008 </r>
       <r>    -0.6661     0.6739   128.0719 </r>
       <r>    -0.5606     1.4957   128.2297 </r>
       <r>    -0.4551     3.7216   128.6224 </r>
       <r>    -0.3496     9.7342   129.6495 </r>
       <r>    -0.2440    13.7329   131.0985 </r>
       <r>    -0.1385    11.5335   132.3154 </r>
       <r>    -0.0330    18.6073   134.2787 </r>
       <r>     0.0725    18.4378   136.2241 </r>
       <r>     0.1780    14.7646   137.7820 </r>
       <r>     0.2835    20.2995   139.9238 </r>
       <r>     0.3890    34.2633   143.5391 </r>
       <r>     0.4945    27.0968   146.3981 </r>
       <r>     0.6001    25.4687   149.0854 </r>
       <r>     0.7056    18.6682   151.0551 </r>
       <r>     0.8111    23.7140   153.5572 </r>
       <r>     0.9166    21.4080   155.8161 </r>
       <r>     1.0221    19.8593   157.9115 </r>
       <r>     1.1276    10.6551   159.0357 </r>
       <r>     1.2331    14.1978   160.5338 </r>
       <r>     1.3386    15.0989   162.1269 </r>
       <r>     1.4442    11.7651   163.3683 </r>
       <r>     1.5497    14.5831   164.9070 </r>
       <r>     1.6552    18.2073   166.8281 </r>
       <r>     1.7607    12.3515   168.1313 </r>
       <r>     1.8662    13.1296   169.5167 </r>
       <r>     1.9717    12.9723   170.8854 </r>
       <r>     2.0772    20.1445   173.0109 </r>
       <r>     2.1828    13.9013   174.4777 </r>
       <r>     2.2883    12.2315   175.7683 </r>
       <r>     2.3938    11.1477   176.9445 </r>
       <r>     2.4993    13.4234   178.3608 </r>
       <r>     2.6048     7.2308   179.1238 </r>
       <r>     2.7103     4.5986   179.6090 </r>
       <r>     2.8158     1.7874   179.7976 </r>
       <r>     2.9213     1.3095   179.9358 </r>
       <r>     3.0269     0.3891   179.9768 </r>
       <r>     3.1324     0.2194   180.0000 </r>
       <r>     3.2379     0.0003   180.0000 </r>
       <r>     3.3434     0.0371   180.0039 </r>
       <r>     3.4489     2.0437   180.2195 </r>
       <r>     3.5544     4.1504   180.6575 </r>
       <r>     3.6599     4.9304   181.1777 </r>
       <r>     3.7654     7.2115   181.9386 </r>
       <r>     3.8710     5.8990   182.5610 </r>
       <r>     3.9765     8.2457   183.4310 </r>
       <r>     4.0820     5.9459   184.0584 </r>
       <r>     4.1875     5.5997   184.6493 </r>
       <r>     4.2930     9.3899   185.6400 </r>
       <r>     4.3985    12.8197   186.9927 </r>
       <r>     4.5040     9.3177   187.9758 </r>
       <r>     4.6095    12.8242   189.3289 </r>
       <r>     4.7151     5.3925   189.8979 </r>
       <r>     4.8206     6.9785   190.6342 </r>
       <r>     4.9261     5.6566   191.2310 </r>
       <r>     5.0316    10.6265   192.3523 </r>
       <r>     5.1371    15.4092   193.9781 </r>
       <r>     5.2426     9.1952   194.9484 </r>
       <r>     5.3481     6.6619   195.6513 </r>
       <r>     5.4536     8.7943   196.5792 </r>
       <r>     5.5592     6.1668   197.2299 </r>
       <r>     5.6647    13.6982   198.6752 </r>
       <r>     5.7702    15.5236   200.3131 </r>
       <r>     5.8757    12.7260   201.6559 </r>
       <r>     5.9812    15.5665   203.2983 </r>
       <r>     6.0867    12.6215   204.6301 </r>
       <r>     6.1922     7.5541   205.4271 </r>
       <r>     6.2978    11.2473   206.6139 </r>
       <r>     6.4033    12.1074   207.8914 </r>
       <r>     6.5088     9.7863   208.9239 </r>
       <r>     6.6143     2.5978   209.1980 </r>
       <r>     6.7198     2.0138   209.4105 </r>
       <r>     6.8253     8.4947   210.3068 </r>
       <r>     6.9308     6.8170   211.0261 </r>
       <r>     7.0363     2.1483   211.2528 </r>
       <r>     7.1419     0.6794   211.3244 </r>
       <r>     7.2474     1.5287   211.4857 </r>
       <r>     7.3529     2.2956   211.7280 </r>
       <r>     7.4584     4.9157   212.2466 </r>
       <r>     7.5639     9.7058   213.2707 </r>
       <r>     7.6694     7.0290   214.0124 </r>
       <r>     7.7749     4.3811   214.4746 </r>
       <r>     7.8804     6.8032   215.1924 </r>
       <r>     7.9860     3.2484   215.5352 </r>
       <r>     8.0915     0.4243   215.5800 </r>
       <r>     8.1970     0.4481   215.6272 </r>
       <r>     8.3025     0.9835   215.7310 </r>
       <r>     8.4080     0.6891   215.8037 </r>
       <r>     8.5135     0.2470   215.8298 </r>
       <r>     8.6190     1.3273   215.9698 </r>
       <r>     8.7245     0.2859   216.0000 </r>
       <r>     8.8301     0.0001   216.0000 </r>
       <r>     8.9356     0.0000   216.0000 </r>
       <r>     9.0411     0.0000   216.0000 </r>
       <r>     9.1466     0.0000   216.0000 </r>
       <r>     9.2521     0.0000   216.0000 </r>
       <r>     9.3576     0.0000   216.0000 </r>
       <r>     9.4631     0.0000   216.0000 </r>
       <r>     9.5686     0.0000   216.0000 </r>
       <r>     9.6742     0.0000   216.0000 </r>
       <r>     9.7797     0.0000   216.0000 </r>
       <r>     9.8852     0.0000   216.0000 </r>
       <r>     9.9907     0.0000   216.0000 </r>
       <r>    10.0962     0.0000   216.0000 </r>
      </set>
     </set>
    </array>
   </total>
  </dos>
 </calculation>
 <structure name="finalpos" >
  <crystal>
   <varray name="basis" >
    <v>       0.00000000       0.00000000       6.42203989 </v>
    <v>       4.49914758      -4.49914758       0.00000000 </v>
    <v>      15.54584216      15.54584216       0.00000000 </v>
   </varray>
   <i name="volume">    898.35396184 </i>
   <varray name="rec_basis" >
    <v>       0.00000000       0.00000000       0.15571376 </v>
    <v>       0.11113216      -0.11113216       0.00000000 </v>
    <v>       0.03216294       0.03216294       0.00000000 </v>
   </varray>
  </crystal>
  <varray name="positions" >
   <v>       0.13081166       0.56969810       0.00000000 </v>
   <v>       0.63081166       0.56969810       0.00000000 </v>
   <v>       0.38081166       0.26151810       0.05551494 </v>
   <v>       0.88081166       0.26151810       0.05551494 </v>
   <v>       0.38081166       0.87787810       0.05551494 </v>
   <v>       0.88081166       0.87787810       0.05551494 </v>
   <v>       0.13081166       0.56969810       0.11102988 </v>
   <v>       0.63081166       0.56969810       0.11102988 </v>
   <v>       0.13081166       0.06969810       0.14470582 </v>
   <v>       0.63081166       0.06969810       0.14470582 </v>
   <v>       0.38081166       0.37787810       0.20022076 </v>
   <v>       0.88081166       0.37787810       0.20022076 </v>
   <v>       0.38081166       0.76151810       0.20022076 </v>
   <v>       0.88081166       0.76151810       0.20022076 </v>
   <v>       0.13081166       0.06969810       0.25573570 </v>
   <v>       0.63081166       0.06969810       0.25573570 </v>
   <v>       0.13080264       0.56970774       0.28912365 </v>
   <v>       0.63080637       0.56970773       0.28912369 </v>
   <v>       0.38081342       0.26020680       0.34544787 </v>
   <v>       0.88081426       0.26020890       0.34544764 </v>
   <v>       0.38079211       0.87920482       0.34544532 </v>
   <v>       0.88079303       0.87920271       0.34544509 </v>
   <v>       0.13079743       0.56970205       0.39902729 </v>
   <v>       0.63079886       0.56970166       0.39902865 </v>
   <v>       0.13072599       0.06969245       0.43482917 </v>
   <v>       0.63071448       0.06969219       0.43482947 </v>
   <v>       0.38079557       0.38089043       0.49199816 </v>
   <v>       0.88079056       0.38089417       0.49199819 </v>
   <v>       0.38079797       0.75846969       0.49200005 </v>
   <v>       0.88079296       0.75846594       0.49200008 </v>
   <v>       0.13076795       0.06966326       0.54337666 </v>
   <v>       0.63074302       0.06966335       0.54337657 </v>
   <v>       0.13081166       0.06969810       0.05551494 </v>
   <v>       0.63081166       0.06969810       0.05551494 </v>
   <v>       0.38081166       0.56969810       0.05551494 </v>
   <v>       0.88081166       0.56969810       0.05551494 </v>
   <v>       0.38081166       0.06969810       0.20022076 </v>
   <v>       0.88081166       0.06969810       0.20022076 </v>
   <v>       0.13081166       0.56969810       0.20022076 </v>
   <v>       0.63081166       0.56969810       0.20022076 </v>
   <v>       0.13079976       0.06969803       0.34568526 </v>
   <v>       0.63079756       0.06969800       0.34568516 </v>
   <v>       0.38079699       0.56970457       0.34443703 </v>
   <v>       0.88079579       0.56970457       0.34443722 </v>
   <v>       0.38073953       0.06967130       0.49403011 </v>
   <v>       0.88073840       0.06967168       0.49402252 </v>
   <v>       0.13079319       0.56966818       0.48583257 </v>
   <v>       0.63079538       0.56966819       0.48583010 </v>
  </varray>
  <varray name="selective"  type="logical" >
   <v type="logical" >  F  F  F </v>
   <v type="logical" >  F  F  F </v>
   <v type="logical" >  F  F  F </v>
   <v type="logical" >  F  F  F </v>
   <v type="logical" >  F  F  F </v>
   <v type="logical" >  F  F  F </v>
   <v type="logical" >  F  F  F </v>
   <v type="logical" >  F  F  F </v>
   <v type="logical" >  F  F  F </v>
   <v type="logical" >  F  F  F </v>
   <v type="logical" >  F  F  F </v>
   <v type="logical" >  F  F  F </v>
   <v type="logical" >  F  F  F </v>
   <v type="logical" >  F  F  F </v>
   <v type="logical" >  F  F  F </v>
   <v type="logical" >  F  F  F </v>
   <v type="logical" >  T  T  T </v>
   <v type="logical" >  T  T  T </v>
   <v type="logical" >  T  T  T </v>
   <v type="logical" >  T  T  T </v>
   <v type="logical" >  T  T  T </v>
   <v type="logical" >  T  T  T </v>
   <v type="logical" >  T  T  T </v>
   <v type="logical" >  T  T  T </v>
   <v type="logical" >  T  T  T </v>
   <v type="logical" >  T  T  T </v>
   <v type="logical" >  T  T  T </v>
   <v type="logical" >  T  T  T </v>
   <v type="logical" >  T  T  T </v>
   <v type="logical" >  T  T  T </v>
   <v type="logical" >  T  T  T </v>
   <v type="logical" >  T  T  T </v>
   <v type="logical" >  F  F  F </v>
   <v type="logical" >  F  F  F </v>
   <v type="logical" >  F  F  F </v>
   <v type="logical" >  F  F  F </v>
   <v type="logical" >  F  F  F </v>
   <v type="logical" >  F  F  F </v>
   <v type="logical" >  F  F  F </v>
   <v type="logical" >  F  F  F </v>
   <v type="logical" >  T  T  T </v>
   <v type="logical" >  T  T  T </v>
   <v type="logical" >  T  T  T </v>
   <v type="logical" >  T  T  T </v>
   <v type="logical" >  T  T  T </v>
   <v type="logical" >  T  T  T </v>
   <v type="logical" >  T  T  T </v>
   <v type="logical" >  T  T  T </v>
  </varray>
  <nose>
   <v>      -3.00000000       0.00000000       0.00010000       0.00010000 </v>
  </nose>
 </structure>
</modeling>
