  48  48   0   0
  0.1689748E+02  0.5647110E-09  0.6450148E-09  0.2226728E-08  0.1000000E-15
  1.000000000000000E-004
  CAR 
 VO2_suf110_2x1x4_2fix                   
      5.48996323    -20.82507785  301      0.45148599      1.00000000
    -20.825  0.0000E+00  0.0000E+00  0.0000E+00  0.0000E+00
    -20.737  0.0000E+00  0.0000E+00  0.0000E+00  0.0000E+00
    -20.650  0.0000E+00  0.0000E+00  0.0000E+00  0.0000E+00
    -20.562  0.0000E+00  0.0000E+00  0.0000E+00  0.0000E+00
    -20.474  0.0000E+00  0.0000E+00  0.0000E+00  0.0000E+00
    -20.386  0.0000E+00  0.0000E+00  0.0000E+00  0.0000E+00
    -20.299  0.0000E+00  0.0000E+00  0.0000E+00  0.0000E+00
    -20.211  0.0000E+00  0.0000E+00  0.0000E+00  0.0000E+00
    -20.123  0.0000E+00  0.0000E+00  0.0000E+00  0.0000E+00
    -20.036  0.0000E+00  0.0000E+00  0.0000E+00  0.0000E+00
    -19.948  0.0000E+00  0.0000E+00  0.0000E+00  0.0000E+00
    -19.860  0.7159E-17  0.2179E-13  0.6280E-18  0.1912E-14
    -19.772  0.8375E-10  0.1750E-07  0.7346E-11  0.1535E-08
    -19.685  0.2560E-05  0.4082E-04  0.2245E-06  0.3582E-05
    -19.597  0.3040E-03  0.6673E-03  0.2689E-04  0.6212E-04
    -19.509  0.1141E-02  0.1614E-02  0.1269E-03  0.2037E-03
    -19.422  0.2095E-02  0.2995E-02  0.3107E-03  0.4665E-03
    -19.334  0.3658E-02  0.3148E-02  0.6316E-03  0.7426E-03
    -19.246  0.2715E-02  0.3069E-02  0.8697E-03  0.1012E-02
    -19.158  0.2546E-02  0.2932E-02  0.1093E-02  0.1269E-02
    -19.071  0.4167E-02  0.5624E-02  0.1459E-02  0.1762E-02
    -18.983  0.6505E-02  0.7177E-02  0.2029E-02  0.2392E-02
    -18.895  0.7392E-02  0.8345E-02  0.2678E-02  0.3124E-02
    -18.808  0.8238E-02  0.1060E-01  0.3400E-02  0.4054E-02
    -18.720  0.1126E-01  0.1295E-01  0.4388E-02  0.5190E-02
    -18.632  0.1391E-01  0.1278E-01  0.5608E-02  0.6311E-02
    -18.544  0.1211E-01  0.1469E-01  0.6670E-02  0.7599E-02
    -18.457  0.1383E-01  0.1448E-01  0.7884E-02  0.8869E-02
    -18.369  0.1546E-01  0.2001E-01  0.9240E-02  0.1062E-01
    -18.281  0.2190E-01  0.2123E-01  0.1116E-01  0.1249E-01
    -18.194  0.2074E-01  0.2560E-01  0.1298E-01  0.1473E-01
    -18.106  0.2473E-01  0.2408E-01  0.1515E-01  0.1684E-01
    -18.018  0.2438E-01  0.3759E-01  0.1729E-01  0.2014E-01
    -17.930  0.4050E-01  0.3854E-01  0.2084E-01  0.2352E-01
    -17.843  0.3677E-01  0.2305E-01  0.2407E-01  0.2554E-01
    -17.755  0.1892E-01  0.1797E-01  0.2573E-01  0.2712E-01
    -17.667  0.1733E-01  0.2013E-01  0.2725E-01  0.2889E-01
    -17.580  0.2059E-01  0.1126E-01  0.2905E-01  0.2987E-01
    -17.492  0.9786E-02  0.1427E-02  0.2991E-01  0.3000E-01
    -17.404  0.1005E-02  0.9633E-05  0.3000E-01  0.3000E-01
    -17.316  0.3976E-05  0.2989E-09  0.3000E-01  0.3000E-01
    -17.229  0.6349E-10  0.1362E-11  0.3000E-01  0.3000E-01
    -17.141  0.3049E-13  0.6535E-06  0.3000E-01  0.3000E-01
    -17.053  0.5430E-07  0.1035E-02  0.3000E-01  0.3009E-01
    -16.966  0.3060E-03  0.1184E-01  0.3003E-01  0.3113E-01
    -16.878  0.9442E-02  0.8077E-02  0.3086E-01  0.3184E-01
    -16.790  0.9668E-02  0.1825E-02  0.3170E-01  0.3200E-01
    -16.702  0.3274E-02  0.1953E-04  0.3199E-01  0.3200E-01
    -16.615  0.1096E-03  0.1059E-08  0.3200E-01  0.3200E-01
    -16.527  0.2889E-07  0.1538E-15  0.3200E-01  0.3200E-01
    -16.439  0.2211E-13  0.0000E+00  0.3200E-01  0.3200E-01
    -16.352  0.0000E+00  0.0000E+00  0.3200E-01  0.3200E-01
    -16.264  0.0000E+00  0.0000E+00  0.3200E-01  0.3200E-01
    -16.176  0.0000E+00  0.0000E+00  0.3200E-01  0.3200E-01
    -16.088  0.0000E+00  0.0000E+00  0.3200E-01  0.3200E-01
    -16.001  0.0000E+00  0.0000E+00  0.3200E-01  0.3200E-01
    -15.913  0.0000E+00  0.0000E+00  0.3200E-01  0.3200E-01
    -15.825  0.0000E+00  0.0000E+00  0.3200E-01  0.3200E-01
    -15.738  0.0000E+00  0.0000E+00  0.3200E-01  0.3200E-01
    -15.650  0.0000E+00  0.0000E+00  0.3200E-01  0.3200E-01
    -15.562  0.0000E+00  0.0000E+00  0.3200E-01  0.3200E-01
    -15.474  0.0000E+00  0.0000E+00  0.3200E-01  0.3200E-01
    -15.387  0.0000E+00  0.0000E+00  0.3200E-01  0.3200E-01
    -15.299  0.0000E+00  0.0000E+00  0.3200E-01  0.3200E-01
    -15.211  0.0000E+00  0.0000E+00  0.3200E-01  0.3200E-01
    -15.123  0.0000E+00  0.0000E+00  0.3200E-01  0.3200E-01
    -15.036  0.0000E+00  0.0000E+00  0.3200E-01  0.3200E-01
    -14.948  0.0000E+00  0.0000E+00  0.3200E-01  0.3200E-01
    -14.860  0.0000E+00  0.0000E+00  0.3200E-01  0.3200E-01
    -14.773  0.0000E+00  0.0000E+00  0.3200E-01  0.3200E-01
    -14.685  0.0000E+00  0.0000E+00  0.3200E-01  0.3200E-01
    -14.597  0.0000E+00  0.0000E+00  0.3200E-01  0.3200E-01
    -14.509  0.0000E+00  0.0000E+00  0.3200E-01  0.3200E-01
    -14.422  0.0000E+00  0.0000E+00  0.3200E-01  0.3200E-01
    -14.334  0.0000E+00  0.0000E+00  0.3200E-01  0.3200E-01
    -14.246  0.0000E+00  0.0000E+00  0.3200E-01  0.3200E-01
    -14.159  0.0000E+00  0.0000E+00  0.3200E-01  0.3200E-01
    -14.071  0.0000E+00  0.0000E+00  0.3200E-01  0.3200E-01
    -13.983  0.0000E+00  0.0000E+00  0.3200E-01  0.3200E-01
    -13.895  0.0000E+00  0.0000E+00  0.3200E-01  0.3200E-01
    -13.808  0.0000E+00  0.0000E+00  0.3200E-01  0.3200E-01
    -13.720  0.0000E+00  0.0000E+00  0.3200E-01  0.3200E-01
    -13.632  0.0000E+00  0.0000E+00  0.3200E-01  0.3200E-01
    -13.545  0.0000E+00  0.0000E+00  0.3200E-01  0.3200E-01
    -13.457  0.0000E+00  0.0000E+00  0.3200E-01  0.3200E-01
    -13.369  0.0000E+00  0.0000E+00  0.3200E-01  0.3200E-01
    -13.281  0.0000E+00  0.0000E+00  0.3200E-01  0.3200E-01
    -13.194  0.0000E+00  0.0000E+00  0.3200E-01  0.3200E-01
    -13.106  0.0000E+00  0.0000E+00  0.3200E-01  0.3200E-01
    -13.018  0.0000E+00  0.0000E+00  0.3200E-01  0.3200E-01
    -12.931  0.0000E+00  0.0000E+00  0.3200E-01  0.3200E-01
    -12.843  0.0000E+00  0.0000E+00  0.3200E-01  0.3200E-01
    -12.755  0.0000E+00  0.0000E+00  0.3200E-01  0.3200E-01
    -12.667  0.0000E+00  0.0000E+00  0.3200E-01  0.3200E-01
    -12.580  0.0000E+00  0.0000E+00  0.3200E-01  0.3200E-01
    -12.492  0.0000E+00  0.0000E+00  0.3200E-01  0.3200E-01
    -12.404  0.0000E+00  0.0000E+00  0.3200E-01  0.3200E-01
    -12.317  0.0000E+00  0.0000E+00  0.3200E-01  0.3200E-01
    -12.229  0.0000E+00  0.0000E+00  0.3200E-01  0.3200E-01
    -12.141  0.0000E+00  0.0000E+00  0.3200E-01  0.3200E-01
    -12.053  0.0000E+00  0.0000E+00  0.3200E-01  0.3200E-01
    -11.966  0.0000E+00  0.0000E+00  0.3200E-01  0.3200E-01
    -11.878  0.0000E+00  0.0000E+00  0.3200E-01  0.3200E-01
    -11.790  0.0000E+00  0.0000E+00  0.3200E-01  0.3200E-01
    -11.703  0.0000E+00  0.0000E+00  0.3200E-01  0.3200E-01
    -11.615  0.0000E+00  0.0000E+00  0.3200E-01  0.3200E-01
    -11.527  0.0000E+00  0.0000E+00  0.3200E-01  0.3200E-01
    -11.439  0.0000E+00  0.0000E+00  0.3200E-01  0.3200E-01
    -11.352  0.0000E+00  0.0000E+00  0.3200E-01  0.3200E-01
    -11.264  0.0000E+00  0.0000E+00  0.3200E-01  0.3200E-01
    -11.176  0.0000E+00  0.0000E+00  0.3200E-01  0.3200E-01
    -11.089  0.0000E+00  0.0000E+00  0.3200E-01  0.3200E-01
    -11.001  0.0000E+00  0.0000E+00  0.3200E-01  0.3200E-01
    -10.913  0.0000E+00  0.0000E+00  0.3200E-01  0.3200E-01
    -10.825  0.0000E+00  0.0000E+00  0.3200E-01  0.3200E-01
    -10.738  0.0000E+00  0.0000E+00  0.3200E-01  0.3200E-01
    -10.650  0.0000E+00  0.0000E+00  0.3200E-01  0.3200E-01
    -10.562  0.0000E+00  0.0000E+00  0.3200E-01  0.3200E-01
    -10.474  0.0000E+00  0.0000E+00  0.3200E-01  0.3200E-01
    -10.387  0.0000E+00  0.0000E+00  0.3200E-01  0.3200E-01
    -10.299  0.0000E+00  0.0000E+00  0.3200E-01  0.3200E-01
    -10.211  0.0000E+00  0.0000E+00  0.3200E-01  0.3200E-01
    -10.124  0.0000E+00  0.0000E+00  0.3200E-01  0.3200E-01
    -10.036  0.0000E+00  0.0000E+00  0.3200E-01  0.3200E-01
     -9.948  0.0000E+00  0.0000E+00  0.3200E-01  0.3200E-01
     -9.860  0.0000E+00  0.0000E+00  0.3200E-01  0.3200E-01
     -9.773  0.0000E+00  0.0000E+00  0.3200E-01  0.3200E-01
     -9.685  0.0000E+00  0.0000E+00  0.3200E-01  0.3200E-01
     -9.597  0.0000E+00  0.0000E+00  0.3200E-01  0.3200E-01
     -9.510  0.0000E+00  0.0000E+00  0.3200E-01  0.3200E-01
     -9.422  0.0000E+00  0.0000E+00  0.3200E-01  0.3200E-01
     -9.334  0.0000E+00  0.0000E+00  0.3200E-01  0.3200E-01
     -9.246  0.0000E+00  0.0000E+00  0.3200E-01  0.3200E-01
     -9.159  0.0000E+00  0.0000E+00  0.3200E-01  0.3200E-01
     -9.071  0.0000E+00  0.0000E+00  0.3200E-01  0.3200E-01
     -8.983  0.0000E+00  0.0000E+00  0.3200E-01  0.3200E-01
     -8.896  0.0000E+00  0.0000E+00  0.3200E-01  0.3200E-01
     -8.808  0.0000E+00  0.0000E+00  0.3200E-01  0.3200E-01
     -8.720  0.0000E+00  0.0000E+00  0.3200E-01  0.3200E-01
     -8.632  0.0000E+00  0.0000E+00  0.3200E-01  0.3200E-01
     -8.545  0.0000E+00  0.0000E+00  0.3200E-01  0.3200E-01
     -8.457  0.0000E+00  0.0000E+00  0.3200E-01  0.3200E-01
     -8.369  0.0000E+00  0.0000E+00  0.3200E-01  0.3200E-01
     -8.282  0.0000E+00  0.0000E+00  0.3200E-01  0.3200E-01
     -8.194  0.0000E+00  0.0000E+00  0.3200E-01  0.3200E-01
     -8.106  0.0000E+00  0.0000E+00  0.3200E-01  0.3200E-01
     -8.018  0.0000E+00  0.0000E+00  0.3200E-01  0.3200E-01
     -7.931  0.0000E+00  0.0000E+00  0.3200E-01  0.3200E-01
     -7.843  0.0000E+00  0.0000E+00  0.3200E-01  0.3200E-01
     -7.755  0.0000E+00  0.0000E+00  0.3200E-01  0.3200E-01
     -7.668  0.0000E+00  0.0000E+00  0.3200E-01  0.3200E-01
     -7.580  0.0000E+00  0.0000E+00  0.3200E-01  0.3200E-01
     -7.492  0.1073E-13  0.0000E+00  0.3200E-01  0.3200E-01
     -7.404  0.1109E-07  0.0000E+00  0.3200E-01  0.3200E-01
     -7.317  0.3283E-04  0.1978E-18  0.3200E-01  0.3200E-01
     -7.229  0.5430E-03  0.6901E-11  0.3205E-01  0.3200E-01
     -7.141  0.1284E-02  0.6091E-06  0.3216E-01  0.3200E-01
     -7.054  0.2165E-02  0.1819E-03  0.3235E-01  0.3202E-01
     -6.966  0.3339E-02  0.6191E-03  0.3265E-01  0.3207E-01
     -6.878  0.5121E-02  0.1848E-02  0.3310E-01  0.3223E-01
     -6.790  0.4114E-02  0.2577E-02  0.3346E-01  0.3246E-01
     -6.703  0.5472E-02  0.4737E-02  0.3394E-01  0.3287E-01
     -6.615  0.6997E-02  0.4500E-02  0.3455E-01  0.3327E-01
     -6.527  0.9214E-02  0.4785E-02  0.3536E-01  0.3369E-01
     -6.440  0.1299E-01  0.7697E-02  0.3650E-01  0.3436E-01
     -6.352  0.1108E-01  0.7741E-02  0.3747E-01  0.3504E-01
     -6.264  0.1444E-01  0.1513E-01  0.3874E-01  0.3637E-01
     -6.176  0.1927E-01  0.9836E-02  0.4043E-01  0.3723E-01
     -6.089  0.2224E-01  0.1640E-01  0.4238E-01  0.3867E-01
     -6.001  0.2396E-01  0.2153E-01  0.4448E-01  0.4056E-01
     -5.913  0.2685E-01  0.2503E-01  0.4683E-01  0.4276E-01
     -5.826  0.3081E-01  0.2785E-01  0.4954E-01  0.4520E-01
     -5.738  0.2617E-01  0.2739E-01  0.5183E-01  0.4760E-01
     -5.650  0.2835E-01  0.2963E-01  0.5432E-01  0.5020E-01
     -5.562  0.2509E-01  0.2499E-01  0.5652E-01  0.5239E-01
     -5.475  0.1650E-01  0.2605E-01  0.5797E-01  0.5468E-01
     -5.387  0.1187E-01  0.2544E-01  0.5901E-01  0.5691E-01
     -5.299  0.1782E-01  0.1352E-01  0.6057E-01  0.5809E-01
     -5.211  0.1683E-01  0.1431E-01  0.6205E-01  0.5935E-01
     -5.124  0.1192E-01  0.2279E-01  0.6309E-01  0.6135E-01
     -5.036  0.1458E-01  0.1134E-01  0.6437E-01  0.6234E-01
     -4.948  0.1564E-01  0.1534E-01  0.6574E-01  0.6369E-01
     -4.861  0.2243E-01  0.1403E-01  0.6771E-01  0.6492E-01
     -4.773  0.2160E-01  0.1989E-01  0.6960E-01  0.6666E-01
     -4.685  0.1410E-01  0.2128E-01  0.7084E-01  0.6853E-01
     -4.597  0.1817E-01  0.2134E-01  0.7243E-01  0.7040E-01
     -4.510  0.1694E-01  0.1728E-01  0.7392E-01  0.7192E-01
     -4.422  0.1481E-01  0.1888E-01  0.7522E-01  0.7357E-01
     -4.334  0.1563E-01  0.1380E-01  0.7659E-01  0.7478E-01
     -4.247  0.1651E-01  0.1798E-01  0.7804E-01  0.7636E-01
     -4.159  0.1961E-01  0.1693E-01  0.7976E-01  0.7785E-01
     -4.071  0.1959E-01  0.1977E-01  0.8148E-01  0.7958E-01
     -3.983  0.2059E-01  0.1963E-01  0.8328E-01  0.8130E-01
     -3.896  0.2023E-01  0.2063E-01  0.8506E-01  0.8311E-01
     -3.808  0.1673E-01  0.2314E-01  0.8653E-01  0.8514E-01
     -3.720  0.1798E-01  0.1690E-01  0.8810E-01  0.8662E-01
     -3.633  0.1831E-01  0.1793E-01  0.8971E-01  0.8820E-01
     -3.545  0.2266E-01  0.1894E-01  0.9170E-01  0.8986E-01
     -3.457  0.2296E-01  0.2157E-01  0.9371E-01  0.9175E-01
     -3.369  0.2286E-01  0.2256E-01  0.9572E-01  0.9373E-01
     -3.282  0.2238E-01  0.2246E-01  0.9768E-01  0.9570E-01
     -3.194  0.2015E-01  0.2299E-01  0.9945E-01  0.9772E-01
     -3.106  0.1620E-01  0.2533E-01  0.1009E+00  0.9994E-01
     -3.019  0.2411E-01  0.1409E-01  0.1030E+00  0.1012E+00
     -2.931  0.2131E-01  0.2235E-01  0.1049E+00  0.1031E+00
     -2.843  0.1960E-01  0.2091E-01  0.1066E+00  0.1050E+00
     -2.755  0.1820E-01  0.1925E-01  0.1082E+00  0.1067E+00
     -2.668  0.1894E-01  0.2264E-01  0.1098E+00  0.1086E+00
     -2.580  0.1781E-01  0.1768E-01  0.1114E+00  0.1102E+00
     -2.492  0.1763E-01  0.2162E-01  0.1129E+00  0.1121E+00
     -2.405  0.1288E-01  0.1713E-01  0.1141E+00  0.1136E+00
     -2.317  0.1141E-01  0.1148E-01  0.1151E+00  0.1146E+00
     -2.229  0.2021E-01  0.2068E-01  0.1168E+00  0.1164E+00
     -2.141  0.1647E-01  0.2072E-01  0.1183E+00  0.1182E+00
     -2.054  0.1160E-01  0.1227E-01  0.1193E+00  0.1193E+00
     -1.966  0.1201E-01  0.1482E-01  0.1204E+00  0.1206E+00
     -1.878  0.1672E-01  0.1644E-01  0.1218E+00  0.1220E+00
     -1.791  0.1758E-01  0.1809E-01  0.1234E+00  0.1236E+00
     -1.703  0.1263E-01  0.1260E-01  0.1245E+00  0.1247E+00
     -1.615  0.1316E-01  0.1383E-01  0.1256E+00  0.1260E+00
     -1.527  0.9046E-02  0.8062E-02  0.1264E+00  0.1267E+00
     -1.440  0.7113E-02  0.7358E-02  0.1270E+00  0.1273E+00
     -1.352  0.3511E-02  0.2571E-02  0.1274E+00  0.1275E+00
     -1.264  0.4335E-02  0.3408E-02  0.1277E+00  0.1278E+00
     -1.177  0.2133E-02  0.1640E-02  0.1279E+00  0.1280E+00
     -1.089  0.7764E-03  0.3012E-03  0.1280E+00  0.1280E+00
     -1.001  0.1209E-03  0.1965E-05  0.1280E+00  0.1280E+00
     -0.913  0.2095E-06  0.5218E-10  0.1280E+00  0.1280E+00
     -0.826  0.1198E-11  0.3639E-17  0.1280E+00  0.1280E+00
     -0.738  0.2988E-07  0.0000E+00  0.1280E+00  0.1280E+00
     -0.650  0.7567E-04  0.0000E+00  0.1280E+00  0.1280E+00
     -0.562  0.1474E-02  0.0000E+00  0.1281E+00  0.1280E+00
     -0.475  0.2648E-02  0.0000E+00  0.1284E+00  0.1280E+00
     -0.387  0.2486E-02  0.0000E+00  0.1286E+00  0.1280E+00
     -0.299  0.1128E-01  0.0000E+00  0.1296E+00  0.1280E+00
     -0.212  0.1579E-01  0.0000E+00  0.1310E+00  0.1280E+00
     -0.124  0.1521E-01  0.0000E+00  0.1323E+00  0.1280E+00
     -0.036  0.2000E-01  0.0000E+00  0.1340E+00  0.1280E+00
      0.052  0.1511E-01  0.0000E+00  0.1354E+00  0.1280E+00
      0.139  0.2154E-01  0.0000E+00  0.1373E+00  0.1280E+00
      0.227  0.1766E-01  0.0000E+00  0.1388E+00  0.1280E+00
      0.315  0.2334E-01  0.1787E-15  0.1409E+00  0.1280E+00
      0.402  0.2205E-01  0.7533E-09  0.1428E+00  0.1280E+00
      0.490  0.2421E-01  0.9298E-05  0.1449E+00  0.1280E+00
      0.578  0.2247E-01  0.8317E-03  0.1469E+00  0.1281E+00
      0.666  0.2190E-01  0.2434E-02  0.1488E+00  0.1283E+00
      0.753  0.2103E-01  0.2578E-02  0.1507E+00  0.1285E+00
      0.841  0.2693E-01  0.7791E-02  0.1530E+00  0.1292E+00
      0.929  0.2719E-01  0.1951E-01  0.1554E+00  0.1309E+00
      1.016  0.2470E-01  0.2133E-01  0.1576E+00  0.1328E+00
      1.104  0.3054E-01  0.2054E-01  0.1603E+00  0.1346E+00
      1.192  0.2356E-01  0.2147E-01  0.1623E+00  0.1365E+00
      1.280  0.2051E-01  0.2328E-01  0.1641E+00  0.1385E+00
      1.367  0.2692E-01  0.2595E-01  0.1665E+00  0.1408E+00
      1.455  0.1733E-01  0.2913E-01  0.1680E+00  0.1433E+00
      1.543  0.2835E-01  0.2818E-01  0.1705E+00  0.1458E+00
      1.630  0.2150E-01  0.2343E-01  0.1724E+00  0.1479E+00
      1.718  0.1758E-01  0.3016E-01  0.1739E+00  0.1505E+00
      1.806  0.1404E-01  0.2228E-01  0.1751E+00  0.1525E+00
      1.894  0.1026E-01  0.2238E-01  0.1760E+00  0.1544E+00
      1.981  0.1037E-01  0.2589E-01  0.1770E+00  0.1567E+00
      2.069  0.1004E-01  0.2842E-01  0.1778E+00  0.1592E+00
      2.157  0.7726E-02  0.2856E-01  0.1785E+00  0.1617E+00
      2.244  0.2399E-02  0.3156E-01  0.1787E+00  0.1645E+00
      2.332  0.1034E-02  0.2259E-01  0.1788E+00  0.1664E+00
      2.420  0.1834E-02  0.2485E-01  0.1790E+00  0.1686E+00
      2.508  0.3024E-02  0.2549E-01  0.1792E+00  0.1709E+00
      2.595  0.6030E-02  0.2362E-01  0.1798E+00  0.1729E+00
      2.683  0.8338E-02  0.1614E-01  0.1805E+00  0.1744E+00
      2.771  0.4664E-02  0.1363E-01  0.1809E+00  0.1755E+00
      2.858  0.6629E-02  0.1321E-01  0.1815E+00  0.1767E+00
      2.946  0.1217E-01  0.1145E-01  0.1826E+00  0.1777E+00
      3.034  0.9618E-02  0.6924E-02  0.1834E+00  0.1783E+00
      3.122  0.1150E-01  0.4867E-02  0.1844E+00  0.1787E+00
      3.209  0.9068E-02  0.5631E-02  0.1852E+00  0.1792E+00
      3.297  0.9760E-02  0.7729E-02  0.1861E+00  0.1799E+00
      3.385  0.6087E-02  0.5588E-02  0.1866E+00  0.1804E+00
      3.472  0.5481E-02  0.9088E-02  0.1871E+00  0.1812E+00
      3.560  0.2937E-02  0.9751E-02  0.1873E+00  0.1821E+00
      3.648  0.3482E-02  0.1005E-01  0.1876E+00  0.1829E+00
      3.736  0.2431E-02  0.1103E-01  0.1879E+00  0.1839E+00
      3.823  0.1665E-02  0.1437E-01  0.1880E+00  0.1852E+00
      3.911  0.3331E-04  0.1148E-01  0.1880E+00  0.1862E+00
      3.999  0.3122E-08  0.7461E-02  0.1880E+00  0.1868E+00
      4.086  0.8335E-15  0.4819E-02  0.1880E+00  0.1873E+00
      4.174  0.0000E+00  0.2821E-02  0.1880E+00  0.1875E+00
      4.262  0.0000E+00  0.3485E-02  0.1880E+00  0.1878E+00
      4.350  0.0000E+00  0.2131E-02  0.1880E+00  0.1880E+00
      4.437  0.0000E+00  0.9639E-04  0.1880E+00  0.1880E+00
      4.525  0.0000E+00  0.3607E-07  0.1880E+00  0.1880E+00
      4.613  0.0000E+00  0.4381E-13  0.1880E+00  0.1880E+00
      4.701  0.0000E+00  0.0000E+00  0.1880E+00  0.1880E+00
      4.788  0.0000E+00  0.0000E+00  0.1880E+00  0.1880E+00
      4.876  0.0000E+00  0.0000E+00  0.1880E+00  0.1880E+00
      4.964  0.0000E+00  0.0000E+00  0.1880E+00  0.1880E+00
      5.051  0.0000E+00  0.0000E+00  0.1880E+00  0.1880E+00
      5.139  0.0000E+00  0.0000E+00  0.1880E+00  0.1880E+00
      5.227  0.0000E+00  0.0000E+00  0.1880E+00  0.1880E+00
      5.315  0.0000E+00  0.0000E+00  0.1880E+00  0.1880E+00
      5.402  0.0000E+00  0.0000E+00  0.1880E+00  0.1880E+00
      5.490  0.0000E+00  0.0000E+00  0.1880E+00  0.1880E+00
