       N       E                     dE             d eps       ncg     rms          rms(c)
DAV:   1     0.437984285641E+04    0.43798E+04   -0.10203E+05  7520   0.146E+03
DAV:   2     0.112226432269E+04   -0.32576E+04   -0.29585E+04  7748   0.395E+02
DAV:   3    -0.278635446375E+03   -0.14009E+04   -0.13148E+04 10520   0.271E+02
DAV:   4    -0.520228425134E+03   -0.24159E+03   -0.23468E+03 12248   0.127E+02
DAV:   5    -0.531801082368E+03   -0.11573E+02   -0.11028E+02 11560   0.348E+01    0.131E+02
RMM:   6    -0.418040812499E+03    0.11376E+03   -0.11000E+03  8620   0.999E+01    0.906E+01
RMM:   7    -0.454714579090E+03   -0.36674E+02   -0.25295E+02  8405   0.659E+01    0.689E+01
RMM:   8    -0.413214544925E+03    0.41500E+02   -0.67824E+01  8543   0.286E+01    0.695E+01
RMM:   9    -0.396552365543E+03    0.16662E+02   -0.35309E+01  8350   0.217E+01    0.491E+01
RMM:  10    -0.389251899434E+03    0.73005E+01   -0.24284E+01  8408   0.167E+01    0.512E+01
RMM:  11    -0.377864927731E+03    0.11387E+02   -0.12079E+01  8403   0.120E+01    0.240E+01
RMM:  12    -0.385922876385E+03   -0.80579E+01   -0.10742E+01  9154   0.857E+00    0.279E+01
RMM:  13    -0.384621719057E+03    0.13012E+01   -0.32824E+00  8602   0.515E+00    0.257E+01
RMM:  14    -0.383976265400E+03    0.64545E+00   -0.12797E+00  8216   0.362E+00    0.148E+01
RMM:  15    -0.387572654088E+03   -0.35964E+01   -0.16661E+00  8571   0.353E+00    0.142E+01
RMM:  16    -0.400238800661E+03   -0.12666E+02   -0.13228E+01  8014   0.852E+00    0.138E+01
RMM:  17    -0.403547875762E+03   -0.33091E+01   -0.42300E+00  8030   0.675E+00    0.153E+01
RMM:  18    -0.403909344811E+03   -0.36147E+00   -0.14946E+00  8995   0.309E+00    0.984E+00
RMM:  19    -0.404462579613E+03   -0.55323E+00   -0.83179E-01  8501   0.207E+00    0.906E+00
RMM:  20    -0.404727725201E+03   -0.26515E+00   -0.33411E-01  8626   0.167E+00    0.705E+00
RMM:  21    -0.405187413384E+03   -0.45969E+00   -0.35248E-01  9353   0.139E+00    0.609E+00
RMM:  22    -0.405778347151E+03   -0.59093E+00   -0.41714E-01  8736   0.180E+00    0.682E+00
RMM:  23    -0.406114683265E+03   -0.33634E+00   -0.35252E-01  9005   0.154E+00    0.571E+00
RMM:  24    -0.406326898836E+03   -0.21222E+00   -0.17628E-01  9233   0.106E+00    0.576E+00
RMM:  25    -0.406427104746E+03   -0.10021E+00   -0.81343E-02  8780   0.831E-01    0.414E+00
RMM:  26    -0.406535746730E+03   -0.10864E+00   -0.92200E-02  8749   0.873E-01    0.296E+00
RMM:  27    -0.406571202905E+03   -0.35456E-01   -0.67469E-02  8773   0.753E-01    0.165E+00
RMM:  28    -0.406603613636E+03   -0.32411E-01   -0.33922E-02  9412   0.424E-01    0.177E+00
RMM:  29    -0.406608317777E+03   -0.47041E-02   -0.97994E-03  8035   0.306E-01    0.125E+00
RMM:  30    -0.406615720084E+03   -0.74023E-02   -0.94012E-03  8719   0.270E-01    0.838E-01
RMM:  31    -0.406617634055E+03   -0.19140E-02   -0.30134E-03  7359   0.176E-01    0.611E-01
RMM:  32    -0.406620624417E+03   -0.29904E-02   -0.23698E-03  7116   0.166E-01    0.311E-01
RMM:  33    -0.406624139177E+03   -0.35148E-02   -0.19257E-03  7348   0.120E-01    0.413E-01
RMM:  34    -0.406625209721E+03   -0.10705E-02   -0.83051E-04  6330   0.970E-02    0.310E-01
RMM:  35    -0.406626616689E+03   -0.14070E-02   -0.60639E-04  6118   0.702E-02    0.180E-01
RMM:  36    -0.406627291437E+03   -0.67475E-03   -0.36313E-04  5430   0.570E-02    0.115E-01
RMM:  37    -0.406627519198E+03   -0.22776E-03   -0.14580E-04  4528   0.472E-02    0.751E-02
RMM:  38    -0.406627974350E+03   -0.45515E-03   -0.13342E-04  4540   0.350E-02    0.483E-02
RMM:  39    -0.406628515481E+03   -0.54113E-03   -0.13265E-04  4545   0.314E-02    0.308E-02
RMM:  40    -0.406629120362E+03   -0.60488E-03   -0.13479E-04  4564   0.304E-02    0.415E-02
RMM:  41    -0.406629346542E+03   -0.22618E-03   -0.59776E-05  4193   0.248E-02    0.321E-02
RMM:  42    -0.406629843481E+03   -0.49694E-03   -0.88045E-05  4307   0.196E-02    0.120E-02
RMM:  43    -0.406630291068E+03   -0.44759E-03   -0.55749E-05  4132   0.198E-02    0.119E-02
RMM:  44    -0.406630719034E+03   -0.42797E-03   -0.46069E-05  3785   0.154E-02    0.917E-03
RMM:  45    -0.406630930049E+03   -0.21101E-03   -0.42382E-05  3631   0.151E-02    0.598E-03
RMM:  46    -0.406631020414E+03   -0.90365E-04   -0.30044E-05  3148   0.125E-02
   1 F= -.41633612E+03 E0= -.41631738E+03  d E =-.416336E+03  mag=    16.0003
       N       E                     dE             d eps       ncg     rms          rms(c)
DAV:   1    -0.407077266649E+03   -0.44634E+00   -0.12559E+01  8224   0.812E+00    0.194E+00
RMM:   2    -0.407672675936E+03   -0.59541E+00   -0.62287E-01  8772   0.231E+00    0.119E+01
RMM:   3    -0.407112175341E+03    0.56050E+00   -0.10576E-01  8380   0.109E+00    0.217E+00
RMM:   4    -0.407118097862E+03   -0.59225E-02   -0.36410E-02  8498   0.581E-01    0.266E+00
RMM:   5    -0.407101278141E+03    0.16820E-01   -0.23560E-02  8381   0.462E-01    0.169E+00
RMM:   6    -0.407109911968E+03   -0.86338E-02   -0.14939E-02  8090   0.410E-01    0.255E+00
RMM:   7    -0.407095091832E+03    0.14820E-01   -0.13423E-02  7808   0.406E-01    0.111E+00
RMM:   8    -0.407094405534E+03    0.68630E-03   -0.69017E-03  8234   0.238E-01    0.885E-01
RMM:   9    -0.407093570783E+03    0.83475E-03   -0.28558E-03  7315   0.181E-01    0.456E-01
RMM:  10    -0.407095325909E+03   -0.17551E-02   -0.15037E-03  7246   0.130E-01    0.517E-01
RMM:  11    -0.407094927897E+03    0.39801E-03   -0.46926E-04  5865   0.834E-02    0.245E-01
RMM:  12    -0.407095093549E+03   -0.16565E-03   -0.33641E-04  5374   0.647E-02    0.127E-01
RMM:  13    -0.407095269982E+03   -0.17643E-03   -0.20139E-04  4885   0.587E-02    0.181E-01
RMM:  14    -0.407095289907E+03   -0.19925E-04   -0.10621E-04  4474   0.421E-02
   2 F= -.41679982E+03 E0= -.41678088E+03  d E =-.463703E+00  mag=    16.0040
       N       E                     dE             d eps       ncg     rms          rms(c)
DAV:   1    -0.407541608827E+03   -0.44634E+00   -0.11250E+02  8208   0.240E+01    0.653E+00
RMM:   2    -0.409460971349E+03   -0.19194E+01   -0.52862E+00  8530   0.672E+00    0.224E+01
RMM:   3    -0.408020247086E+03    0.14407E+01   -0.69997E-01  8880   0.250E+00    0.637E+00
RMM:   4    -0.408317710828E+03   -0.29746E+00   -0.40760E-01  8533   0.195E+00    0.117E+01
RMM:   5    -0.407873801352E+03    0.44391E+00   -0.36208E-01  8561   0.190E+00    0.565E+00
RMM:   6    -0.407901279082E+03   -0.27478E-01   -0.27165E-01  8203   0.170E+00    0.626E+00
RMM:   7    -0.407774508432E+03    0.12677E+00   -0.92951E-02  8152   0.111E+00    0.262E+00
RMM:   8    -0.407787193174E+03   -0.12685E-01   -0.58003E-02  8477   0.729E-01    0.272E+00
RMM:   9    -0.407766735306E+03    0.20458E-01   -0.18124E-02  8172   0.442E-01    0.861E-01
RMM:  10    -0.407778148381E+03   -0.11413E-01   -0.97149E-03  8046   0.311E-01    0.115E+00
RMM:  11    -0.407780867819E+03   -0.27194E-02   -0.35757E-03  7650   0.185E-01    0.394E-01
RMM:  12    -0.407789745271E+03   -0.88775E-02   -0.16529E-03  7669   0.116E-01    0.268E-01
RMM:  13    -0.407795068896E+03   -0.53236E-02   -0.10230E-03  6875   0.109E-01    0.373E-01
RMM:  14    -0.407797780139E+03   -0.27112E-02   -0.53225E-04  6165   0.881E-02    0.129E-01
RMM:  15    -0.407802187116E+03   -0.44070E-02   -0.36597E-04  5378   0.561E-02    0.909E-02
RMM:  16    -0.407803573168E+03   -0.13861E-02   -0.13924E-04  4650   0.484E-02    0.128E-01
RMM:  17    -0.407805496192E+03   -0.19230E-02   -0.89513E-05  4430   0.331E-02    0.553E-02
RMM:  18    -0.407806966978E+03   -0.14708E-02   -0.57713E-05  4266   0.251E-02    0.630E-02
RMM:  19    -0.407808132722E+03   -0.11657E-02   -0.51192E-05  4164   0.227E-02    0.440E-02
RMM:  20    -0.407809325613E+03   -0.11929E-02   -0.53738E-05  4209   0.188E-02    0.540E-02
RMM:  21    -0.407810675747E+03   -0.13501E-02   -0.72056E-05  4297   0.212E-02    0.226E-02
RMM:  22    -0.407811763198E+03   -0.10875E-02   -0.83251E-05  4346   0.191E-02    0.257E-02
RMM:  23    -0.407812038234E+03   -0.27504E-03   -0.40647E-05  4022   0.188E-02    0.224E-02
RMM:  24    -0.407812298988E+03   -0.26075E-03   -0.35057E-05  3825   0.138E-02    0.109E-02
RMM:  25    -0.407812394679E+03   -0.95692E-04   -0.20561E-05  3544   0.134E-02
   3 F= -.41751474E+03 E0= -.41749885E+03  d E =-.117862E+01  mag=    15.9837
       N       E                     dE             d eps       ncg     rms          rms(c)
DAV:   1    -0.407959202748E+03   -0.14690E+00   -0.94017E+00  8264   0.707E+00    0.161E+00
RMM:   2    -0.408015460949E+03   -0.56258E-01   -0.31465E-01  8267   0.184E+00    0.370E+00
RMM:   3    -0.408016115203E+03   -0.65425E-03   -0.53565E-02  8848   0.701E-01    0.267E+00
RMM:   4    -0.407995686569E+03    0.20429E-01   -0.21290E-02  8357   0.467E-01    0.255E+00
RMM:   5    -0.407969770215E+03    0.25916E-01   -0.10653E-02  7978   0.358E-01    0.892E-01
RMM:   6    -0.407970282453E+03   -0.51224E-03   -0.12727E-02  8073   0.360E-01    0.156E+00
RMM:   7    -0.407959512788E+03    0.10770E-01   -0.80858E-03  8097   0.296E-01    0.108E+00
RMM:   8    -0.407954731269E+03    0.47815E-02   -0.38927E-03  7254   0.228E-01    0.372E-01
RMM:   9    -0.407956634621E+03   -0.19034E-02   -0.13612E-03  7054   0.119E-01    0.395E-01
RMM:  10    -0.407958428162E+03   -0.17935E-02   -0.48569E-04  5921   0.847E-02    0.883E-02
RMM:  11    -0.407962785633E+03   -0.43575E-02   -0.20021E-04  4807   0.422E-02    0.744E-02
RMM:  12    -0.407966205214E+03   -0.34196E-02   -0.14777E-04  4668   0.429E-02    0.990E-02
RMM:  13    -0.407968947966E+03   -0.27428E-02   -0.12381E-04  4494   0.357E-02    0.543E-02
RMM:  14    -0.407972072258E+03   -0.31243E-02   -0.90841E-05  4309   0.286E-02    0.329E-02
RMM:  15    -0.407974225501E+03   -0.21532E-02   -0.63395E-05  4162   0.216E-02    0.401E-02
RMM:  16    -0.407976147359E+03   -0.19219E-02   -0.51061E-05  4092   0.201E-02    0.258E-02
RMM:  17    -0.407978889671E+03   -0.27423E-02   -0.10853E-04  4322   0.186E-02    0.253E-02
RMM:  18    -0.407979998326E+03   -0.11087E-02   -0.61228E-05  4148   0.205E-02    0.266E-02
RMM:  19    -0.407980849569E+03   -0.85124E-03   -0.66147E-05  4036   0.167E-02    0.197E-02
RMM:  20    -0.407981152974E+03   -0.30340E-03   -0.31289E-05  3640   0.159E-02    0.116E-02
RMM:  21    -0.407981552840E+03   -0.39987E-03   -0.38768E-05  3498   0.119E-02    0.107E-02
RMM:  22    -0.407981640540E+03   -0.87700E-04   -0.18339E-05  3202   0.129E-02
   4 F= -.41769030E+03 E0= -.41767322E+03  d E =-.175558E+00  mag=    15.9819
       N       E                     dE             d eps       ncg     rms          rms(c)
DAV:   1    -0.408025602325E+03   -0.44049E-01   -0.34425E+01  8296   0.137E+01    0.329E+00
RMM:   2    -0.408118324205E+03   -0.92722E-01   -0.10956E+00  8306   0.344E+00    0.368E+00
RMM:   3    -0.408205413655E+03   -0.87089E-01   -0.20497E-01  8720   0.142E+00    0.503E+00
RMM:   4    -0.408131340489E+03    0.74073E-01   -0.62873E-02  8432   0.843E-01    0.415E+00
RMM:   5    -0.408086590285E+03    0.44750E-01   -0.37413E-02  8188   0.694E-01    0.269E+00
RMM:   6    -0.408061538633E+03    0.25052E-01   -0.50934E-02  8240   0.701E-01    0.256E+00
RMM:   7    -0.408033242970E+03    0.28296E-01   -0.28656E-02  7902   0.597E-01    0.100E+00
RMM:   8    -0.408034814144E+03   -0.15712E-02   -0.77846E-03  7914   0.277E-01    0.777E-01
RMM:   9    -0.408040769917E+03   -0.59558E-02   -0.27206E-03  7162   0.191E-01    0.376E-01
RMM:  10    -0.408044685576E+03   -0.39157E-02   -0.10894E-03  6882   0.968E-02    0.416E-01
RMM:  11    -0.408052031745E+03   -0.73462E-02   -0.54779E-04  5942   0.795E-02    0.178E-01
RMM:  12    -0.408058201278E+03   -0.61695E-02   -0.43152E-04  5828   0.685E-02    0.240E-01
RMM:  13    -0.408068998328E+03   -0.10797E-01   -0.55215E-04  5874   0.715E-02    0.909E-02
RMM:  14    -0.408076399793E+03   -0.74015E-02   -0.23314E-04  4865   0.455E-02    0.821E-02
RMM:  15    -0.408078319316E+03   -0.19195E-02   -0.79315E-05  4238   0.348E-02    0.541E-02
RMM:  16    -0.408085025377E+03   -0.67061E-02   -0.11680E-04  4430   0.244E-02    0.384E-02
RMM:  17    -0.408091500294E+03   -0.64749E-02   -0.12862E-04  4517   0.264E-02    0.566E-02
RMM:  18    -0.408094557114E+03   -0.30568E-02   -0.76980E-05  4256   0.240E-02    0.396E-02
RMM:  19    -0.408099932771E+03   -0.53757E-02   -0.25446E-04  4819   0.257E-02    0.211E-02
RMM:  20    -0.408101333400E+03   -0.14006E-02   -0.99223E-05  4358   0.260E-02    0.244E-02
RMM:  21    -0.408101973984E+03   -0.64058E-03   -0.64468E-05  4117   0.200E-02    0.132E-02
RMM:  22    -0.408102432740E+03   -0.45876E-03   -0.47477E-05  4029   0.177E-02    0.137E-02
RMM:  23    -0.408102556573E+03   -0.12383E-03   -0.25590E-05  3657   0.148E-02    0.884E-03
RMM:  24    -0.408102618717E+03   -0.62143E-04   -0.16268E-05  3070   0.105E-02
   5 F= -.41782320E+03 E0= -.41780698E+03  d E =-.308461E+00  mag=    15.9881
       N       E                     dE             d eps       ncg     rms          rms(c)
DAV:   1    -0.408137316509E+03   -0.34760E-01   -0.28610E+01  7696   0.123E+01    0.169E+00
RMM:   2    -0.408290367105E+03   -0.15305E+00   -0.10523E+00  8322   0.325E+00    0.380E+00
RMM:   3    -0.408255594926E+03    0.34772E-01   -0.11226E-01  9463   0.981E-01    0.228E+00
RMM:   4    -0.408255770458E+03   -0.17553E-03   -0.21747E-02  8217   0.480E-01    0.272E+00
RMM:   5    -0.408237481660E+03    0.18289E-01   -0.73514E-03  8135   0.288E-01    0.118E+00
RMM:   6    -0.408252959786E+03   -0.15478E-01   -0.23337E-02  8169   0.501E-01    0.257E+00
RMM:   7    -0.408233397862E+03    0.19562E-01   -0.14739E-02  8300   0.428E-01    0.103E+00
RMM:   8    -0.408232371037E+03    0.10268E-02   -0.72218E-03  7653   0.294E-01    0.776E-01
RMM:   9    -0.408231222724E+03    0.11483E-02   -0.17965E-03  7143   0.153E-01    0.362E-01
RMM:  10    -0.408230888683E+03    0.33404E-03   -0.54403E-04  5997   0.903E-02    0.144E-01
RMM:  11    -0.408231024018E+03   -0.13533E-03   -0.19976E-04  4972   0.547E-02    0.148E-01
RMM:  12    -0.408230995123E+03    0.28894E-04   -0.98404E-05  4451   0.443E-02
   6 F= -.41795113E+03 E0= -.41793519E+03  d E =-.127926E+00  mag=    15.9905
       N       E                     dE             d eps       ncg     rms          rms(c)
DAV:   1    -0.408225482963E+03    0.55411E-02   -0.77726E+00  7752   0.640E+00    0.888E-01
RMM:   2    -0.408265105773E+03   -0.39623E-01   -0.28787E-01  8323   0.172E+00    0.191E+00
RMM:   3    -0.408254688193E+03    0.10418E-01   -0.30674E-02  9042   0.524E-01    0.957E-01
RMM:   4    -0.408258740323E+03   -0.40521E-02   -0.53006E-03  7850   0.231E-01    0.153E+00
RMM:   5    -0.408252474776E+03    0.62655E-02   -0.20821E-03  7292   0.161E-01    0.624E-01
RMM:   6    -0.408256146015E+03   -0.36712E-02   -0.58924E-03  7828   0.254E-01    0.127E+00
RMM:   7    -0.408251998808E+03    0.41472E-02   -0.42643E-03  7833   0.228E-01    0.656E-01
RMM:   8    -0.408250965015E+03    0.10338E-02   -0.16485E-03  6952   0.145E-01    0.334E-01
RMM:   9    -0.408250850976E+03    0.11404E-03   -0.48508E-04  5858   0.775E-02    0.216E-01
RMM:  10    -0.408250710685E+03    0.14029E-03   -0.16277E-04  4829   0.566E-02    0.710E-02
RMM:  11    -0.408250735995E+03   -0.25310E-04   -0.50578E-05  4078   0.288E-02
   7 F= -.41797059E+03 E0= -.41795464E+03  d E =-.147386E+00  mag=    15.9948
       N       E                     dE             d eps       ncg     rms          rms(c)
DAV:   1    -0.408272776110E+03   -0.22065E-01   -0.56616E+00  7736   0.558E+00    0.841E-01
RMM:   2    -0.408311938499E+03   -0.39162E-01   -0.24428E-01  8223   0.166E+00    0.232E+00
RMM:   3    -0.408296879164E+03    0.15059E-01   -0.33424E-02  9253   0.492E-01    0.902E-01
RMM:   4    -0.408297761509E+03   -0.88235E-03   -0.48942E-03  7694   0.232E-01    0.109E+00
RMM:   5    -0.408294101384E+03    0.36601E-02   -0.36431E-03  8080   0.188E-01    0.647E-01
RMM:   6    -0.408298374084E+03   -0.42727E-02   -0.65793E-03  7666   0.283E-01    0.141E+00
RMM:   7    -0.408291217261E+03    0.71568E-02   -0.36633E-03  7588   0.223E-01    0.476E-01
RMM:   8    -0.408290434691E+03    0.78257E-03   -0.17457E-03  7011   0.144E-01    0.293E-01
RMM:   9    -0.408290385479E+03    0.49212E-04   -0.62017E-04  6158   0.794E-02
   8 F= -.41800482E+03 E0= -.41798926E+03  d E =-.342272E-01  mag=    15.9971
       N       E                     dE             d eps       ncg     rms          rms(c)
DAV:   1    -0.408291206084E+03   -0.77139E-03   -0.24079E+00  7824   0.365E+00    0.568E-01
RMM:   2    -0.408307253083E+03   -0.16047E-01   -0.10691E-01  8131   0.111E+00    0.148E+00
RMM:   3    -0.408301450728E+03    0.58024E-02   -0.14747E-02  8995   0.332E-01    0.615E-01
RMM:   4    -0.408301991652E+03   -0.54092E-03   -0.24963E-03  7282   0.165E-01    0.774E-01
RMM:   5    -0.408299309314E+03    0.26823E-02   -0.16471E-03  7509   0.126E-01    0.384E-01
RMM:   6    -0.408300251370E+03   -0.94206E-03   -0.28428E-03  7244   0.190E-01    0.850E-01
RMM:   7    -0.408298406348E+03    0.18450E-02   -0.15291E-03  7036   0.140E-01    0.445E-01
RMM:   8    -0.408297767180E+03    0.63917E-03   -0.72710E-04  6213   0.101E-01    0.139E-01
RMM:   9    -0.408298384886E+03   -0.61771E-03   -0.30608E-04  5020   0.535E-02    0.922E-02
RMM:  10    -0.408298615450E+03   -0.23056E-03   -0.87136E-05  4172   0.435E-02    0.602E-02
RMM:  11    -0.408299217004E+03   -0.60155E-03   -0.31614E-05  3970   0.214E-02    0.362E-02
RMM:  12    -0.408299761144E+03   -0.54414E-03   -0.19189E-05  3916   0.175E-02    0.449E-02
RMM:  13    -0.408300727918E+03   -0.96677E-03   -0.24861E-05  3919   0.150E-02    0.289E-02
RMM:  14    -0.408301651114E+03   -0.92320E-03   -0.29708E-05  3965   0.159E-02    0.335E-02
RMM:  15    -0.408302069841E+03   -0.41873E-03   -0.20962E-05  3826   0.152E-02    0.180E-02
RMM:  16    -0.408302468465E+03   -0.39862E-03   -0.16015E-05  3512   0.107E-02    0.165E-02
RMM:  17    -0.408303176400E+03   -0.70793E-03   -0.31508E-05  3717   0.122E-02    0.180E-02
RMM:  18    -0.408303608275E+03   -0.43187E-03   -0.32179E-05  3667   0.132E-02    0.207E-02
RMM:  19    -0.408303787133E+03   -0.17886E-03   -0.23978E-05  3310   0.120E-02    0.803E-03
RMM:  20    -0.408303857702E+03   -0.70569E-04   -0.16069E-05  2751   0.995E-03
   9 F= -.41801475E+03 E0= -.41799912E+03  d E =-.441600E-01  mag=    15.9996
       N       E                     dE             d eps       ncg     rms          rms(c)
DAV:   1    -0.408304933967E+03   -0.11468E-02   -0.41465E+00  7536   0.488E+00    0.535E-01
RMM:   2    -0.408326624497E+03   -0.21691E-01   -0.15908E-01  8123   0.138E+00    0.147E+00
RMM:   3    -0.408321343087E+03    0.52814E-02   -0.17511E-02  9305   0.385E-01    0.642E-01
RMM:   4    -0.408322104968E+03   -0.76188E-03   -0.16343E-03  7048   0.130E-01    0.760E-01
RMM:   5    -0.408320341703E+03    0.17633E-02   -0.85705E-04  6755   0.104E-01    0.440E-01
RMM:   6    -0.408321162255E+03   -0.82055E-03   -0.24310E-03  7183   0.171E-01    0.677E-01
RMM:   7    -0.408319853644E+03    0.13086E-02   -0.20447E-03  7681   0.152E-01    0.505E-01
RMM:   8    -0.408319074071E+03    0.77957E-03   -0.57884E-04  6070   0.895E-02    0.109E-01
RMM:   9    -0.408319117446E+03   -0.43375E-04   -0.17921E-04  4668   0.461E-02
  10 F= -.41802810E+03 E0= -.41801242E+03  d E =-.133487E-01  mag=    15.9997
       N       E                     dE             d eps       ncg     rms          rms(c)
DAV:   1    -0.408315113992E+03    0.39601E-02   -0.21456E+00  7560   0.351E+00    0.385E-01
RMM:   2    -0.408325877318E+03   -0.10763E-01   -0.82787E-02  8114   0.100E+00    0.966E-01
RMM:   3    -0.408323686944E+03    0.21904E-02   -0.91981E-03  9135   0.278E-01    0.451E-01
RMM:   4    -0.408324241789E+03   -0.55485E-03   -0.83177E-04  6498   0.953E-02    0.569E-01
RMM:   5    -0.408323198106E+03    0.10437E-02   -0.42128E-04  5758   0.801E-02    0.333E-01
RMM:   6    -0.408323605027E+03   -0.40692E-03   -0.11489E-03  6682   0.123E-01    0.493E-01
RMM:   7    -0.408323092938E+03    0.51209E-03   -0.11173E-03  7058   0.114E-01    0.422E-01
RMM:   8    -0.408322597632E+03    0.49531E-03   -0.36914E-04  5546   0.758E-02    0.796E-02
RMM:   9    -0.408322669786E+03   -0.72155E-04   -0.12781E-04  4385   0.407E-02
  11 F= -.41803027E+03 E0= -.41801441E+03  d E =-.155240E-01  mag=    15.9997
       N       E                     dE             d eps       ncg     rms          rms(c)
DAV:   1    -0.408326710199E+03   -0.41126E-02   -0.28418E+00  7536   0.384E+00    0.407E-01
RMM:   2    -0.408338710055E+03   -0.12000E-01   -0.97529E-02  8354   0.990E-01    0.842E-01
RMM:   3    -0.408337664462E+03    0.10456E-02   -0.10552E-02  8872   0.284E-01    0.613E-01
RMM:   4    -0.408337330320E+03    0.33414E-03   -0.97258E-04  6759   0.102E-01    0.551E-01
RMM:   5    -0.408336653588E+03    0.67673E-03   -0.40955E-04  5567   0.801E-02    0.322E-01
RMM:   6    -0.408337145702E+03   -0.49211E-03   -0.17077E-03  7406   0.121E-01    0.497E-01
RMM:   7    -0.408336306635E+03    0.83907E-03   -0.86471E-04  6779   0.110E-01    0.275E-01
RMM:   8    -0.408336223021E+03    0.83615E-04   -0.46383E-04  5836   0.782E-02
  12 F= -.41804010E+03 E0= -.41802408E+03  d E =-.982363E-02  mag=    15.9998
       N       E                     dE             d eps       ncg     rms          rms(c)
DAV:   1    -0.408327284048E+03    0.90226E-02   -0.51915E+00  7544   0.520E+00    0.561E-01
RMM:   2    -0.408348405679E+03   -0.21122E-01   -0.17824E-01  8403   0.133E+00    0.113E+00
RMM:   3    -0.408347789945E+03    0.61573E-03   -0.19724E-02  9036   0.396E-01    0.887E-01
RMM:   4    -0.408346555164E+03    0.12348E-02   -0.18377E-03  7397   0.136E-01    0.748E-01
RMM:   5    -0.408345367843E+03    0.11873E-02   -0.86401E-04  6608   0.110E-01    0.446E-01
RMM:   6    -0.408345698533E+03   -0.33069E-03   -0.26487E-03  7604   0.153E-01    0.595E-01
RMM:   7    -0.408344623746E+03    0.10748E-02   -0.18774E-03  7244   0.154E-01    0.445E-01
RMM:   8    -0.408344068502E+03    0.55524E-03   -0.74525E-04  6471   0.952E-02    0.243E-01
RMM:   9    -0.408343900178E+03    0.16832E-03   -0.22735E-04  5040   0.589E-02    0.799E-02
RMM:  10    -0.408343997957E+03   -0.97778E-04   -0.97033E-05  4316   0.415E-02
  13 F= -.41804283E+03 E0= -.41802687E+03  d E =-.125581E-01  mag=    15.9999
       N       E                     dE             d eps       ncg     rms          rms(c)
DAV:   1    -0.408349383452E+03   -0.54833E-02   -0.19300E+00  7664   0.320E+00    0.336E-01
RMM:   2    -0.408357756941E+03   -0.83735E-02   -0.66046E-02  8251   0.834E-01    0.811E-01
RMM:   3    -0.408356412139E+03    0.13448E-02   -0.69994E-03  8568   0.253E-01    0.392E-01
RMM:   4    -0.408356846020E+03   -0.43388E-03   -0.99747E-04  6803   0.100E-01    0.484E-01
RMM:   5    -0.408356110121E+03    0.73590E-03   -0.36523E-04  5586   0.744E-02    0.238E-01
RMM:   6    -0.408356468959E+03   -0.35884E-03   -0.56510E-04  6152   0.840E-02    0.418E-01
RMM:   7    -0.408355999816E+03    0.46914E-03   -0.45508E-04  6046   0.806E-02    0.133E-01
RMM:   8    -0.408356011496E+03   -0.11679E-04   -0.20674E-04  4850   0.549E-02
  14 F= -.41805044E+03 E0= -.41803458E+03  d E =-.761107E-02  mag=    15.9999
       N       E                     dE             d eps       ncg     rms          rms(c)
DAV:   1    -0.408332701184E+03    0.23299E-01   -0.12573E+01  7728   0.818E+00    0.859E-01
RMM:   2    -0.408385251513E+03   -0.52550E-01   -0.42882E-01  8298   0.210E+00    0.206E+00
RMM:   3    -0.408376885834E+03    0.83657E-02   -0.44946E-02  9063   0.638E-01    0.116E+00
RMM:   4    -0.408378488335E+03   -0.16025E-02   -0.68007E-03  8056   0.252E-01    0.133E+00
RMM:   5    -0.408371650611E+03    0.68377E-02   -0.29962E-03  7564   0.182E-01    0.524E-01
RMM:   6    -0.408373400656E+03   -0.17500E-02   -0.37988E-03  7524   0.205E-01    0.104E+00
RMM:   7    -0.408369612808E+03    0.37878E-02   -0.28515E-03  7558   0.192E-01    0.343E-01
RMM:   8    -0.408370107361E+03   -0.49455E-03   -0.15865E-03  7213   0.127E-01    0.438E-01
RMM:   9    -0.408369539309E+03    0.56805E-03   -0.59786E-04  6361   0.821E-02    0.175E-01
RMM:  10    -0.408369533207E+03    0.61015E-05   -0.18873E-04  4842   0.554E-02
  15 F= -.41805272E+03 E0= -.41803699E+03  d E =-.989224E-02  mag=    15.9999
       N       E                     dE             d eps       ncg     rms          rms(c)
DAV:   1    -0.408363805691E+03    0.57336E-02   -0.13078E+00  7704   0.263E+00    0.266E-01
RMM:   2    -0.408368972291E+03   -0.51666E-02   -0.42016E-02  8214   0.669E-01    0.633E-01
RMM:   3    -0.408368116109E+03    0.85618E-03   -0.45486E-03  8473   0.204E-01    0.297E-01
RMM:   4    -0.408368113460E+03    0.26493E-05   -0.53109E-04  5985   0.764E-02
  16 F= -.41805492E+03 E0= -.41803919E+03  d E =-.120873E-01  mag=    15.9999
       N       E                     dE             d eps       ncg     rms          rms(c)
DAV:   1    -0.408359201698E+03    0.89144E-02   -0.16702E+00  7704   0.298E+00    0.444E-01
RMM:   2    -0.408387569867E+03   -0.28368E-01   -0.60171E-02  8351   0.809E-01    0.252E+00
RMM:   3    -0.408363334459E+03    0.24235E-01   -0.71593E-03  8249   0.298E-01    0.444E-01
RMM:   4    -0.408363890889E+03   -0.55643E-03   -0.20676E-03  7319   0.152E-01    0.527E-01
RMM:   5    -0.408363032332E+03    0.85856E-03   -0.88435E-04  6804   0.911E-02    0.258E-01
RMM:   6    -0.408363314650E+03   -0.28232E-03   -0.92664E-04  6526   0.110E-01    0.461E-01
RMM:   7    -0.408362565856E+03    0.74879E-03   -0.80406E-04  6651   0.100E-01    0.147E-01
RMM:   8    -0.408362655584E+03   -0.89728E-04   -0.25699E-04  5128   0.603E-02
  17 F= -.41805356E+03 E0= -.41803779E+03  d E =-.107252E-01  mag=    15.9999
       N       E                     dE             d eps       ncg     rms          rms(c)
DAV:   1    -0.408364304126E+03   -0.17383E-02   -0.47822E-01  7744   0.159E+00    0.169E-01
RMM:   2    -0.408366948613E+03   -0.26445E-02   -0.16602E-02  8141   0.423E-01    0.590E-01
RMM:   3    -0.408366023249E+03    0.92536E-03   -0.17341E-03  7620   0.133E-01    0.219E-01
RMM:   4    -0.408366021453E+03    0.17959E-05   -0.23758E-04  5090   0.591E-02
  18 F= -.41805474E+03 E0= -.41803906E+03  d E =-.119124E-01  mag=    15.9999
       N       E                     dE             d eps       ncg     rms          rms(c)
DAV:   1    -0.408366785993E+03   -0.76274E-03   -0.77931E-02  7860   0.660E-01    0.138E-01
RMM:   2    -0.408368399213E+03   -0.16132E-02   -0.30381E-03  7766   0.194E-01    0.637E-01
RMM:   3    -0.408366879381E+03    0.15198E-02   -0.39051E-04  5729   0.816E-02    0.155E-01
RMM:   4    -0.408366882546E+03   -0.31643E-05   -0.14979E-04  4597   0.487E-02
  19 F= -.41805472E+03 E0= -.41803893E+03  d E =-.118883E-01  mag=    15.9999
       N       E                     dE             d eps       ncg     rms          rms(c)
DAV:   1    -0.408373252654E+03   -0.63733E-02   -0.57671E-01  7672   0.176E+00    0.362E-01
RMM:   2    -0.408379196860E+03   -0.59442E-02   -0.23285E-02  8097   0.530E-01    0.109E+00
RMM:   3    -0.408376049218E+03    0.31476E-02   -0.43092E-03  8078   0.214E-01    0.593E-01
RMM:   4    -0.408375271669E+03    0.77755E-03   -0.84716E-04  6606   0.975E-02    0.412E-01
RMM:   5    -0.408374801751E+03    0.46992E-03   -0.32373E-04  5374   0.677E-02    0.278E-01
RMM:   6    -0.408374460295E+03    0.34146E-03   -0.36261E-04  5628   0.740E-02    0.248E-01
RMM:   7    -0.408374089883E+03    0.37041E-03   -0.74013E-04  6652   0.868E-02    0.306E-01
RMM:   8    -0.408373499372E+03    0.59051E-03   -0.29268E-04  5227   0.687E-02    0.775E-02
RMM:   9    -0.408373498601E+03    0.77131E-06   -0.98452E-05  4298   0.400E-02
  20 F= -.41805900E+03 E0= -.41804321E+03  d E =-.428344E-02  mag=    15.9999
       N       E                     dE             d eps       ncg     rms          rms(c)
DAV:   1    -0.408375960936E+03   -0.24616E-02   -0.53638E-01  7648   0.169E+00    0.297E-01
RMM:   2    -0.408378202960E+03   -0.22420E-02   -0.20138E-02  8172   0.487E-01    0.503E-01
RMM:   3    -0.408377978472E+03    0.22449E-03   -0.32652E-03  8090   0.172E-01    0.442E-01
RMM:   4    -0.408377192241E+03    0.78623E-03   -0.42149E-04  5696   0.745E-02    0.230E-01
RMM:   5    -0.408377171765E+03    0.20476E-04   -0.44648E-04  5672   0.783E-02
  21 F= -.41806043E+03 E0= -.41804477E+03  d E =-.570694E-02  mag=    15.9999
       N       E                     dE             d eps       ncg     rms          rms(c)
DAV:   1    -0.408381888278E+03   -0.46960E-02   -0.72286E-01  7568   0.206E+00    0.490E-01
RMM:   2    -0.408431090077E+03   -0.49202E-01   -0.40297E-02  8257   0.727E-01    0.353E+00
RMM:   3    -0.408382774683E+03    0.48315E-01   -0.77212E-03  8013   0.341E-01    0.570E-01
RMM:   4    -0.408383006638E+03   -0.23196E-03   -0.24687E-03  7344   0.169E-01    0.380E-01
RMM:   5    -0.408381968111E+03    0.10385E-02   -0.66310E-04  6267   0.763E-02    0.249E-01
RMM:   6    -0.408381626605E+03    0.34151E-03   -0.35739E-04  5429   0.740E-02    0.241E-01
RMM:   7    -0.408381167265E+03    0.45934E-03   -0.49391E-04  5930   0.816E-02    0.301E-01
RMM:   8    -0.408380754694E+03    0.41257E-03   -0.26482E-04  5188   0.666E-02    0.106E-01
RMM:   9    -0.408381090799E+03   -0.33610E-03   -0.13649E-04  4519   0.474E-02    0.123E-01
RMM:  10    -0.408381473052E+03   -0.38225E-03   -0.71378E-05  4097   0.377E-02    0.388E-02
RMM:  11    -0.408381898122E+03   -0.42507E-03   -0.26005E-05  3914   0.184E-02    0.404E-02
RMM:  12    -0.408382428487E+03   -0.53036E-03   -0.17574E-05  3851   0.159E-02    0.240E-02
RMM:  13    -0.408383275330E+03   -0.84684E-03   -0.21452E-05  3773   0.109E-02    0.221E-02
RMM:  14    -0.408383720518E+03   -0.44519E-03   -0.14090E-05  3574   0.128E-02    0.256E-02
RMM:  15    -0.408384285508E+03   -0.56499E-03   -0.16451E-05  3378   0.971E-03    0.181E-02
RMM:  16    -0.408385013276E+03   -0.72777E-03   -0.25103E-05  3582   0.106E-02    0.133E-02
RMM:  17    -0.408385262944E+03   -0.24967E-03   -0.15475E-05  3282   0.106E-02    0.100E-02
RMM:  18    -0.408385555196E+03   -0.29225E-03   -0.19578E-05  3045   0.933E-03    0.156E-02
RMM:  19    -0.408385727150E+03   -0.17195E-03   -0.15638E-05  2963   0.990E-03    0.639E-03
RMM:  20    -0.408385874480E+03   -0.14733E-03   -0.17502E-05  2689   0.840E-03    0.523E-03
RMM:  21    -0.408385899211E+03   -0.24731E-04   -0.92577E-06  2381   0.905E-03
  22 F= -.41806619E+03 E0= -.41805052E+03  d E =-.576144E-02  mag=    15.9999
       N       E                     dE             d eps       ncg     rms          rms(c)
DAV:   1    -0.408386906879E+03   -0.10324E-02   -0.26396E-02  7608   0.390E-01    0.499E-02
RMM:   2    -0.408387012188E+03   -0.10531E-03   -0.87514E-04  6584   0.105E-01    0.101E-01
RMM:   3    -0.408386989356E+03    0.22832E-04   -0.10300E-04  3943   0.414E-02
  23 F= -.41806671E+03 E0= -.41805108E+03  d E =-.628558E-02  mag=    15.9999
       N       E                     dE             d eps       ncg     rms          rms(c)
DAV:   1    -0.408388605133E+03   -0.15929E-02   -0.10692E-01  7608   0.789E-01    0.137E-01
RMM:   2    -0.408390090340E+03   -0.14852E-02   -0.44552E-03  7926   0.245E-01    0.588E-01
RMM:   3    -0.408388896922E+03    0.11934E-02   -0.66530E-04  6428   0.936E-02    0.181E-01
RMM:   4    -0.408388801232E+03    0.95691E-04   -0.14324E-04  4537   0.491E-02
  24 F= -.41806739E+03 E0= -.41805177E+03  d E =-.696556E-02  mag=    15.9999
       N       E                     dE             d eps       ncg     rms          rms(c)
DAV:   1    -0.408390355764E+03   -0.14588E-02   -0.42312E-01  7576   0.156E+00    0.229E-01
RMM:   2    -0.408392185723E+03   -0.18300E-02   -0.15118E-02  8190   0.428E-01    0.435E-01
RMM:   3    -0.408391314764E+03    0.87096E-03   -0.19217E-03  7590   0.130E-01    0.170E-01
RMM:   4    -0.408391231035E+03    0.83729E-04   -0.34746E-04  5395   0.660E-02
  25 F= -.41806756E+03 E0= -.41805200E+03  d E =-.713221E-02  mag=    15.9999
       N       E                     dE             d eps       ncg     rms          rms(c)
DAV:   1    -0.408393334675E+03   -0.20199E-02   -0.69206E-01  7584   0.202E+00    0.249E-01
RMM:   2    -0.408402188076E+03   -0.88534E-02   -0.27410E-02  8422   0.546E-01    0.134E+00
RMM:   3    -0.408395254805E+03    0.69333E-02   -0.26089E-03  8013   0.174E-01    0.207E-01
RMM:   4    -0.408395571442E+03   -0.31664E-03   -0.71134E-04  6288   0.907E-02    0.300E-01
RMM:   5    -0.408395110282E+03    0.46116E-03   -0.20950E-04  4901   0.602E-02    0.115E-01
RMM:   6    -0.408395197141E+03   -0.86859E-04   -0.24066E-04  5056   0.619E-02
  26 F= -.41806957E+03 E0= -.41805395E+03  d E =-.201480E-02  mag=    15.9999
       N       E                     dE             d eps       ncg     rms          rms(c)
DAV:   1    -0.408382324861E+03    0.12785E-01   -0.62058E+00  7536   0.603E+00    0.589E-01
RMM:   2    -0.408407132681E+03   -0.24808E-01   -0.23070E-01  8542   0.154E+00    0.921E-01
RMM:   3    -0.408407508458E+03   -0.37578E-03   -0.20889E-02  9145   0.427E-01    0.867E-01
RMM:   4    -0.408405241603E+03    0.22669E-02   -0.23602E-03  7526   0.153E-01    0.515E-01
RMM:   5    -0.408404665680E+03    0.57592E-03   -0.14288E-03  6850   0.140E-01    0.427E-01
RMM:   6    -0.408406355238E+03   -0.16896E-02   -0.18912E-03  7605   0.141E-01    0.755E-01
RMM:   7    -0.408404276578E+03    0.20787E-02   -0.82925E-04  6815   0.101E-01    0.285E-01
RMM:   8    -0.408404452750E+03   -0.17617E-03   -0.56050E-04  6092   0.836E-02    0.270E-01
RMM:   9    -0.408404407075E+03    0.45675E-04   -0.20932E-04  4978   0.623E-02
  27 F= -.41807294E+03 E0= -.41805754E+03  d E =-.537889E-02  mag=    15.9999
       N       E                     dE             d eps       ncg     rms          rms(c)
DAV:   1    -0.408405929305E+03   -0.14766E-02   -0.87540E-01  7536   0.225E+00    0.199E-01
RMM:   2    -0.408409149453E+03   -0.32201E-02   -0.28482E-02  8544   0.538E-01    0.350E-01
RMM:   3    -0.408409159387E+03   -0.99341E-05   -0.26869E-03  7932   0.153E-01    0.265E-01
RMM:   4    -0.408409221923E+03   -0.62536E-04   -0.31248E-04  5299   0.683E-02
  28 F= -.41807549E+03 E0= -.41806011E+03  d E =-.255237E-02  mag=    15.9999
       N       E                     dE             d eps       ncg     rms          rms(c)
DAV:   1    -0.408395309826E+03    0.13850E-01   -0.71656E+00  7552   0.644E+00    0.547E-01
RMM:   2    -0.408419298507E+03   -0.23989E-01   -0.23022E-01  8628   0.152E+00    0.848E-01
RMM:   3    -0.408419095588E+03    0.20292E-03   -0.20475E-02  9026   0.417E-01    0.592E-01
RMM:   4    -0.408418536346E+03    0.55924E-03   -0.20808E-03  7568   0.144E-01    0.533E-01
RMM:   5    -0.408418017161E+03    0.51919E-03   -0.70040E-04  6409   0.903E-02    0.384E-01
RMM:   6    -0.408419398928E+03   -0.13818E-02   -0.15767E-03  7443   0.127E-01    0.757E-01
RMM:   7    -0.408417321842E+03    0.20771E-02   -0.11526E-03  7148   0.119E-01    0.249E-01
RMM:   8    -0.408417533200E+03   -0.21136E-03   -0.59987E-04  6185   0.866E-02    0.265E-01
RMM:   9    -0.408417403850E+03    0.12935E-03   -0.20913E-04  4970   0.629E-02    0.628E-02
RMM:  10    -0.408417447156E+03   -0.43306E-04   -0.65405E-05  4115   0.341E-02
  29 F= -.41807725E+03 E0= -.41806177E+03  d E =-.431663E-02  mag=    15.9999
       N       E                     dE             d eps       ncg     rms          rms(c)
DAV:   1    -0.408418094555E+03   -0.69071E-03   -0.16642E+00  7528   0.306E+00    0.283E-01
RMM:   2    -0.408423459401E+03   -0.53648E-02   -0.51530E-02  8475   0.716E-01    0.399E-01
RMM:   3    -0.408424318037E+03   -0.85864E-03   -0.49607E-03  8556   0.205E-01    0.577E-01
RMM:   4    -0.408423345195E+03    0.97284E-03   -0.65078E-04  6378   0.897E-02    0.354E-01
RMM:   5    -0.408422886152E+03    0.45904E-03   -0.34786E-04  5472   0.759E-02    0.176E-01
RMM:   6    -0.408422951224E+03   -0.65073E-04   -0.35420E-04  5462   0.660E-02
  30 F= -.41807914E+03 E0= -.41806361E+03  d E =-.188454E-02  mag=    15.9999
       N       E                     dE             d eps       ncg     rms          rms(c)
DAV:   1    -0.408420451821E+03    0.24343E-02   -0.21071E+00  7528   0.344E+00    0.358E-01
RMM:   2    -0.408429849616E+03   -0.93978E-02   -0.65961E-02  8521   0.822E-01    0.104E+00
RMM:   3    -0.408427355798E+03    0.24938E-02   -0.68884E-03  8672   0.256E-01    0.453E-01
RMM:   4    -0.408427873233E+03   -0.51744E-03   -0.11349E-03  6998   0.113E-01    0.607E-01
RMM:   5    -0.408426434681E+03    0.14386E-02   -0.49083E-04  6119   0.856E-02    0.227E-01
RMM:   6    -0.408426612195E+03   -0.17751E-03   -0.45749E-04  5840   0.771E-02    0.314E-01
RMM:   7    -0.408426396208E+03    0.21599E-03   -0.39644E-04  5945   0.769E-02    0.152E-01
RMM:   8    -0.408426483813E+03   -0.87606E-04   -0.18750E-04  4832   0.539E-02
  31 F= -.41807858E+03 E0= -.41806303E+03  d E =-.132529E-02  mag=    15.9999
       N       E                     dE             d eps       ncg     rms          rms(c)
DAV:   1    -0.408424443772E+03    0.19524E-02   -0.33735E-01  7544   0.138E+00    0.127E-01
RMM:   2    -0.408425991870E+03   -0.15481E-02   -0.10588E-02  8395   0.327E-01    0.335E-01
RMM:   3    -0.408425771078E+03    0.22079E-03   -0.94071E-04  6789   0.101E-01    0.156E-01
RMM:   4    -0.408425886268E+03   -0.11519E-03   -0.14171E-04  4511   0.486E-02    0.204E-01
RMM:   5    -0.408425797006E+03    0.89262E-04   -0.85571E-05  4127   0.435E-02
  32 F= -.41807951E+03 E0= -.41806393E+03  d E =-.225622E-02  mag=    15.9999
       N       E                     dE             d eps       ncg     rms          rms(c)
DAV:   1    -0.408424190521E+03    0.16957E-02   -0.19329E-01  7560   0.104E+00    0.158E-01
RMM:   2    -0.408426099444E+03   -0.19089E-02   -0.66239E-03  8136   0.271E-01    0.634E-01
RMM:   3    -0.408424815961E+03    0.12835E-02   -0.93114E-04  6832   0.116E-01    0.120E-01
RMM:   4    -0.408424925777E+03   -0.10982E-03   -0.17605E-04  4718   0.511E-02    0.157E-01
RMM:   5    -0.408424962697E+03   -0.36920E-04   -0.99772E-05  4193   0.443E-02
  33 F= -.41807991E+03 E0= -.41806433E+03  d E =-.265886E-02  mag=    15.9999
       N       E                     dE             d eps       ncg     rms          rms(c)
DAV:   1    -0.408424986866E+03   -0.61089E-04   -0.91645E-01  7648   0.225E+00    0.202E-01
RMM:   2    -0.408428936052E+03   -0.39492E-02   -0.30822E-02  8084   0.610E-01    0.531E-01
RMM:   3    -0.408428178626E+03    0.75743E-03   -0.35912E-03  8361   0.173E-01    0.214E-01
RMM:   4    -0.408428393637E+03   -0.21501E-03   -0.22795E-04  5036   0.562E-02    0.310E-01
RMM:   5    -0.408428109496E+03    0.28414E-03   -0.12785E-04  4594   0.521E-02    0.215E-01
RMM:   6    -0.408428095025E+03    0.14471E-04   -0.16866E-04  4815   0.498E-02
  34 F= -.41808163E+03 E0= -.41806601E+03  d E =-.171526E-02  mag=    15.9999
       N       E                     dE             d eps       ncg     rms          rms(c)
DAV:   1    -0.408425777274E+03    0.23322E-02   -0.11529E+00  7584   0.253E+00    0.322E-01
RMM:   2    -0.408437042047E+03   -0.11265E-01   -0.38429E-02  8217   0.676E-01    0.148E+00
RMM:   3    -0.408429589815E+03    0.74522E-02   -0.53339E-03  8184   0.248E-01    0.399E-01
RMM:   4    -0.408429500792E+03    0.89022E-04   -0.80092E-04  6518   0.938E-02
  35 F= -.41808143E+03 E0= -.41806595E+03  d E =-.151304E-02  mag=    15.9999
       N       E                     dE             d eps       ncg     rms          rms(c)
DAV:   1    -0.408427950952E+03    0.16389E-02   -0.20607E-01  7760   0.109E+00    0.207E-01
RMM:   2    -0.408433308460E+03   -0.53575E-02   -0.98806E-03  8107   0.357E-01    0.108E+00
RMM:   3    -0.408428709663E+03    0.45988E-02   -0.16098E-03  7291   0.152E-01    0.270E-01
RMM:   4    -0.408428746095E+03   -0.36432E-04   -0.42785E-04  5825   0.769E-02
  36 F= -.41808134E+03 E0= -.41806570E+03  d E =-.142755E-02  mag=    15.9999
       N       E                     dE             d eps       ncg     rms          rms(c)
DAV:   1    -0.408429121354E+03   -0.41169E-03   -0.54765E-01  7552   0.168E+00    0.199E-01
RMM:   2    -0.408432841332E+03   -0.37200E-02   -0.18660E-02  8275   0.434E-01    0.718E-01
RMM:   3    -0.408431178300E+03    0.16630E-02   -0.20607E-03  7386   0.160E-01    0.263E-01
RMM:   4    -0.408431156277E+03    0.22023E-04   -0.30571E-04  5311   0.630E-02
  37 F= -.41808208E+03 E0= -.41806654E+03  d E =-.737685E-03  mag=    15.9999
