VO2_suf110_2x1x4_2fix                   
           1
     0.000000    0.000000    5.647110
     4.560943   -4.560943    0.000000
    15.745343   15.745343    0.000000
   O    V 
  32  16
Direct configuration=     1
   0.41591489  0.55480134  0.00000000
   0.91591489  0.55480134  0.00000000
   0.16591489  0.25573134  0.05820326
   0.66591489  0.25573134  0.05820326
   0.16591489  0.85387134  0.05820326
   0.66591489  0.85387134  0.05820326
   0.41591489  0.55480134  0.11640652
   0.91591489  0.55480134  0.11640652
   0.41591489  0.05480134  0.14483467
   0.91591489  0.05480134  0.14483467
   0.16591489  0.35387134  0.20303793
   0.66591489  0.35387134  0.20303793
   0.16591489  0.75573134  0.20303793
   0.66591489  0.75573134  0.20303793
   0.41591489  0.05480134  0.26124119
   0.91591489  0.05480134  0.26124119
   0.41591489  0.55480134  0.28966934
   0.91591489  0.55480134  0.28966934
   0.16591489  0.25573134  0.34787260
   0.66591489  0.25573134  0.34787260
   0.16591489  0.85387134  0.34787260
   0.66591489  0.85387134  0.34787260
   0.41591489  0.55480134  0.40607587
   0.91591489  0.55480134  0.40607587
   0.41591489  0.05480134  0.43450401
   0.91591489  0.05480134  0.43450401
   0.16591489  0.35387134  0.49270728
   0.66591489  0.35387134  0.49270728
   0.16591489  0.75573134  0.49270728
   0.66591489  0.75573134  0.49270728
   0.41591489  0.05480134  0.55091054
   0.91591489  0.05480134  0.55091054
   0.41591489  0.05480134  0.05820326
   0.91591489  0.05480134  0.05820326
   0.16591489  0.55480134  0.05820326
   0.66591489  0.55480134  0.05820326
   0.16591489  0.05480134  0.20303793
   0.66591489  0.05480134  0.20303793
   0.41591489  0.55480134  0.20303793
   0.91591489  0.55480134  0.20303793
   0.41591489  0.05480134  0.34787260
   0.91591489  0.05480134  0.34787260
   0.16591489  0.55480134  0.34787260
   0.66591489  0.55480134  0.34787260
   0.16591489  0.05480134  0.49270728
   0.66591489  0.05480134  0.49270728
   0.41591489  0.55480134  0.49270728
   0.91591489  0.55480134  0.49270728
Direct configuration=     2
   0.41591489  0.55480134  0.00000000
   0.91591489  0.55480134  0.00000000
   0.16591489  0.25573134  0.05820326
   0.66591489  0.25573134  0.05820326
   0.16591489  0.85387134  0.05820326
   0.66591489  0.85387134  0.05820326
   0.41591489  0.55480134  0.11640652
   0.91591489  0.55480134  0.11640652
   0.41591489  0.05480134  0.14483467
   0.91591489  0.05480134  0.14483467
   0.16591489  0.35387134  0.20303793
   0.66591489  0.35387134  0.20303793
   0.16591489  0.75573134  0.20303793
   0.66591489  0.75573134  0.20303793
   0.41591489  0.05480134  0.26124119
   0.91591489  0.05480134  0.26124119
   0.41591512  0.55479902  0.28964143
   0.91591487  0.55479902  0.28964143
   0.16591727  0.25576129  0.34788537
   0.66591715  0.25576134  0.34788537
   0.16591192  0.85384148  0.34788515
   0.66591179  0.85384143  0.34788515
   0.41591768  0.55480022  0.40644285
   0.91591745  0.55480021  0.40644285
   0.41591542  0.05480369  0.43434950
   0.91591534  0.05480370  0.43434955
   0.16591021  0.35482418  0.49308806
   0.66591022  0.35482413  0.49308806
   0.16591257  0.75478123  0.49308741
   0.66591258  0.75478128  0.49308740
   0.41591768  0.05479983  0.54988133
   0.91591761  0.05479983  0.54988136
   0.41591489  0.05480134  0.05820326
   0.91591489  0.05480134  0.05820326
   0.16591489  0.55480134  0.05820326
   0.66591489  0.55480134  0.05820326
   0.16591489  0.05480134  0.20303793
   0.66591489  0.05480134  0.20303793
   0.41591489  0.55480134  0.20303793
   0.91591489  0.55480134  0.20303793
   0.41591592  0.05480032  0.34779167
   0.91591594  0.05480031  0.34779168
   0.16591590  0.55480228  0.34785829
   0.66591593  0.55480227  0.34785829
   0.16591617  0.05480221  0.49406481
   0.66591617  0.05480221  0.49406480
   0.41591583  0.55480042  0.49149402
   0.91591581  0.55480043  0.49149401
Direct configuration=     3
   0.41591489  0.55480134  0.00000000
   0.91591489  0.55480134  0.00000000
   0.16591489  0.25573134  0.05820326
   0.66591489  0.25573134  0.05820326
   0.16591489  0.85387134  0.05820326
   0.66591489  0.85387134  0.05820326
   0.41591489  0.55480134  0.11640652
   0.91591489  0.55480134  0.11640652
   0.41591489  0.05480134  0.14483467
   0.91591489  0.05480134  0.14483467
   0.16591489  0.35387134  0.20303793
   0.66591489  0.35387134  0.20303793
   0.16591489  0.75573134  0.20303793
   0.66591489  0.75573134  0.20303793
   0.41591489  0.05480134  0.26124119
   0.91591489  0.05480134  0.26124119
   0.41591582  0.55479206  0.28955770
   0.91591478  0.55479206  0.28955769
   0.16592440  0.25585114  0.34792367
   0.66592392  0.25585131  0.34792367
   0.16590300  0.85375187  0.34792277
   0.66590249  0.85375168  0.34792277
   0.41592603  0.55479683  0.40754382
   0.91592514  0.55479683  0.40754381
   0.41591699  0.05481073  0.43388595
   0.91591669  0.05481075  0.43388617
   0.16589615  0.35768270  0.49423042
   0.66589621  0.35768248  0.49423040
   0.16590558  0.75193088  0.49422780
   0.66590565  0.75193109  0.49422779
   0.41592604  0.05479527  0.54679372
   0.91592576  0.05479529  0.54679382
   0.41591489  0.05480134  0.05820326
   0.91591489  0.05480134  0.05820326
   0.16591489  0.55480134  0.05820326
   0.66591489  0.55480134  0.05820326
   0.16591489  0.05480134  0.20303793
   0.66591489  0.05480134  0.20303793
   0.41591489  0.55480134  0.20303793
   0.91591489  0.55480134  0.20303793
   0.41591901  0.05479723  0.34754889
   0.91591910  0.05479720  0.34754889
   0.16591892  0.55480507  0.34781534
   0.66591905  0.55480506  0.34781536
   0.16592002  0.05480480  0.49813743
   0.66592001  0.05480480  0.49813739
   0.41591865  0.55479766  0.48785426
   0.91591857  0.55479767  0.48785421
Direct configuration=     4
   0.41591489  0.55480134  0.00000000
   0.91591489  0.55480134  0.00000000
   0.16591489  0.25573134  0.05820326
   0.66591489  0.25573134  0.05820326
   0.16591489  0.85387134  0.05820326
   0.66591489  0.85387134  0.05820326
   0.41591489  0.55480134  0.11640652
   0.91591489  0.55480134  0.11640652
   0.41591489  0.05480134  0.14483467
   0.91591489  0.05480134  0.14483467
   0.16591489  0.35387134  0.20303793
   0.66591489  0.35387134  0.20303793
   0.16591489  0.75573134  0.20303793
   0.66591489  0.75573134  0.20303793
   0.41591489  0.05480134  0.26124119
   0.91591489  0.05480134  0.26124119
   0.41591525  0.55478844  0.28967794
   0.91591409  0.55478844  0.28967799
   0.16592910  0.25621407  0.34790784
   0.66592906  0.25621411  0.34790785
   0.16589790  0.85338588  0.34790635
   0.66589784  0.85338583  0.34790636
   0.41592786  0.55479115  0.40761840
   0.91592689  0.55479114  0.40761822
   0.41592029  0.05481199  0.43406364
   0.91591986  0.05481201  0.43406393
   0.16589739  0.35855910  0.49499235
   0.66589830  0.35855891  0.49499233
   0.16590509  0.75106448  0.49498808
   0.66590600  0.75106465  0.49498806
   0.41592529  0.05479594  0.54678900
   0.91592509  0.05479596  0.54678911
   0.41591489  0.05480134  0.05820326
   0.91591489  0.05480134  0.05820326
   0.16591489  0.55480134  0.05820326
   0.66591489  0.55480134  0.05820326
   0.16591489  0.05480134  0.20303793
   0.66591489  0.05480134  0.20303793
   0.41591489  0.55480134  0.20303793
   0.91591489  0.55480134  0.20303793
   0.41592066  0.05479853  0.34798003
   0.91592086  0.05479850  0.34798011
   0.16592133  0.55480460  0.34725529
   0.66592028  0.55480461  0.34725521
   0.16592248  0.05480506  0.49782661
   0.66592250  0.05480506  0.49782661
   0.41591778  0.55479929  0.48646959
   0.91591771  0.55479929  0.48646945
Direct configuration=     5
   0.41591489  0.55480134  0.00000000
   0.91591489  0.55480134  0.00000000
   0.16591489  0.25573134  0.05820326
   0.66591489  0.25573134  0.05820326
   0.16591489  0.85387134  0.05820326
   0.66591489  0.85387134  0.05820326
   0.41591489  0.55480134  0.11640652
   0.91591489  0.55480134  0.11640652
   0.41591489  0.05480134  0.14483467
   0.91591489  0.05480134  0.14483467
   0.16591489  0.35387134  0.20303793
   0.66591489  0.35387134  0.20303793
   0.16591489  0.75573134  0.20303793
   0.66591489  0.75573134  0.20303793
   0.41591489  0.05480134  0.26124119
   0.91591489  0.05480134  0.26124119
   0.41591417  0.55478152  0.28990788
   0.91591277  0.55478152  0.28990802
   0.16593809  0.25690812  0.34787758
   0.66593889  0.25690789  0.34787760
   0.16588813  0.85268598  0.34787495
   0.66588893  0.85268621  0.34787497
   0.41593137  0.55478027  0.40776103
   0.91593025  0.55478027  0.40776050
   0.41592660  0.05481442  0.43440345
   0.91592592  0.05481444  0.43440386
   0.16589976  0.36023506  0.49644942
   0.66590231  0.36023493  0.49644940
   0.16590414  0.74940763  0.49644198
   0.66590669  0.74940772  0.49644196
   0.41592386  0.05479723  0.54677996
   0.91592381  0.05479724  0.54678010
   0.41591489  0.05480134  0.05820326
   0.91591489  0.05480134  0.05820326
   0.16591489  0.55480134  0.05820326
   0.66591489  0.55480134  0.05820326
   0.16591489  0.05480134  0.20303793
   0.66591489  0.05480134  0.20303793
   0.41591489  0.55480134  0.20303793
   0.91591489  0.55480134  0.20303793
   0.41592380  0.05480102  0.34880451
   0.91592422  0.05480099  0.34880474
   0.16592592  0.55480372  0.34618429
   0.66592262  0.55480374  0.34618401
   0.16592718  0.05480555  0.49723223
   0.66592727  0.05480555  0.49723230
   0.41591612  0.55480240  0.48382167
   0.91591604  0.55480239  0.48382132
Direct configuration=     6
   0.41591489  0.55480134  0.00000000
   0.91591489  0.55480134  0.00000000
   0.16591489  0.25573134  0.05820326
   0.66591489  0.25573134  0.05820326
   0.16591489  0.85387134  0.05820326
   0.66591489  0.85387134  0.05820326
   0.41591489  0.55480134  0.11640652
   0.91591489  0.55480134  0.11640652
   0.41591489  0.05480134  0.14483467
   0.91591489  0.05480134  0.14483467
   0.16591489  0.35387134  0.20303793
   0.66591489  0.35387134  0.20303793
   0.16591489  0.75573134  0.20303793
   0.66591489  0.75573134  0.20303793
   0.41591489  0.05480134  0.26124119
   0.91591489  0.05480134  0.26124119
   0.41591602  0.55477335  0.28991500
   0.91591495  0.55477335  0.28991536
   0.16593913  0.25747964  0.34791607
   0.66594028  0.25747930  0.34791608
   0.16588715  0.85211362  0.34791438
   0.66588831  0.85211397  0.34791440
   0.41593006  0.55477044  0.40644570
   0.91592913  0.55477044  0.40644515
   0.41592656  0.05482142  0.43470421
   0.91592581  0.05482144  0.43470453
   0.16590743  0.36185357  0.49758792
   0.66591031  0.36185352  0.49758791
   0.16589734  0.74777902  0.49757820
   0.66590022  0.74777903  0.49757819
   0.41592375  0.05480137  0.54680803
   0.91592372  0.05480138  0.54680816
   0.41591489  0.05480134  0.05820326
   0.91591489  0.05480134  0.05820326
   0.16591489  0.55480134  0.05820326
   0.66591489  0.55480134  0.05820326
   0.16591489  0.05480134  0.20303793
   0.66591489  0.05480134  0.20303793
   0.41591489  0.55480134  0.20303793
   0.91591489  0.55480134  0.20303793
   0.41592797  0.05480306  0.34940803
   0.91592822  0.05480303  0.34940830
   0.16593031  0.55480379  0.34476900
   0.66592654  0.55480379  0.34476866
   0.16593068  0.05480801  0.49699927
   0.66593117  0.05480800  0.49699938
   0.41591591  0.55480922  0.48356706
   0.91591578  0.55480922  0.48356640
Direct configuration=     7
   0.41591489  0.55480134  0.00000000
   0.91591489  0.55480134  0.00000000
   0.16591489  0.25573134  0.05820326
   0.66591489  0.25573134  0.05820326
   0.16591489  0.85387134  0.05820326
   0.66591489  0.85387134  0.05820326
   0.41591489  0.55480134  0.11640652
   0.91591489  0.55480134  0.11640652
   0.41591489  0.05480134  0.14483467
   0.91591489  0.05480134  0.14483467
   0.16591489  0.35387134  0.20303793
   0.66591489  0.35387134  0.20303793
   0.16591489  0.75573134  0.20303793
   0.66591489  0.75573134  0.20303793
   0.41591489  0.05480134  0.26124119
   0.91591489  0.05480134  0.26124119
   0.41591697  0.55476909  0.28991871
   0.91591609  0.55476910  0.28991918
   0.16593967  0.25777712  0.34793610
   0.66594100  0.25777672  0.34793610
   0.16588664  0.85181570  0.34793490
   0.66588798  0.85181611  0.34793492
   0.41592938  0.55476531  0.40576105
   0.91592854  0.55476532  0.40576050
   0.41592654  0.05482507  0.43486076
   0.91592575  0.05482508  0.43486103
   0.16591142  0.36269602  0.49818052
   0.66591448  0.36269602  0.49818051
   0.16589380  0.74693131  0.49816962
   0.66589685  0.74693127  0.49816962
   0.41592370  0.05480352  0.54682264
   0.91592367  0.05480353  0.54682276
   0.41591489  0.05480134  0.05820326
   0.91591489  0.05480134  0.05820326
   0.16591489  0.55480134  0.05820326
   0.66591489  0.55480134  0.05820326
   0.16591489  0.05480134  0.20303793
   0.66591489  0.05480134  0.20303793
   0.41591489  0.55480134  0.20303793
   0.91591489  0.55480134  0.20303793
   0.41593015  0.05480412  0.34972216
   0.91593030  0.05480409  0.34972246
   0.16593259  0.55480383  0.34403232
   0.66592859  0.55480381  0.34403196
   0.16593250  0.05480929  0.49687802
   0.66593319  0.05480928  0.49687814
   0.41591580  0.55481278  0.48343453
   0.91591565  0.55481277  0.48343372
Direct configuration=     8
   0.41591489  0.55480134  0.00000000
   0.91591489  0.55480134  0.00000000
   0.16591489  0.25573134  0.05820326
   0.66591489  0.25573134  0.05820326
   0.16591489  0.85387134  0.05820326
   0.66591489  0.85387134  0.05820326
   0.41591489  0.55480134  0.11640652
   0.91591489  0.55480134  0.11640652
   0.41591489  0.05480134  0.14483467
   0.91591489  0.05480134  0.14483467
   0.16591489  0.35387134  0.20303793
   0.66591489  0.35387134  0.20303793
   0.16591489  0.75573134  0.20303793
   0.66591489  0.75573134  0.20303793
   0.41591489  0.05480134  0.26124119
   0.91591489  0.05480134  0.26124119
   0.41591964  0.55476503  0.28915720
   0.91591920  0.55476503  0.28915784
   0.16593514  0.25744471  0.34792394
   0.66593594  0.25744448  0.34792392
   0.16588866  0.85214868  0.34792381
   0.66588948  0.85214895  0.34792381
   0.41593292  0.55476883  0.40543233
   0.91593222  0.55476885  0.40543162
   0.41592125  0.05481932  0.43490569
   0.91592074  0.05481933  0.43490583
   0.16591931  0.36307977  0.49848421
   0.66592181  0.36307980  0.49848421
   0.16589677  0.74653307  0.49847341
   0.66589926  0.74653305  0.49847342
   0.41592407  0.05480586  0.54668529
   0.91592409  0.05480587  0.54668546
   0.41591489  0.05480134  0.05820326
   0.91591489  0.05480134  0.05820326
   0.16591489  0.55480134  0.05820326
   0.66591489  0.55480134  0.05820326
   0.16591489  0.05480134  0.20303793
   0.66591489  0.05480134  0.20303793
   0.41591489  0.55480134  0.20303793
   0.91591489  0.55480134  0.20303793
   0.41593300  0.05480463  0.34972043
   0.91593314  0.05480460  0.34972067
   0.16593304  0.55480562  0.34399272
   0.66592960  0.55480563  0.34399241
   0.16593375  0.05481522  0.49754086
   0.66593407  0.05481520  0.49754098
   0.41591586  0.55480771  0.48362672
   0.91591579  0.55480770  0.48362595
Direct configuration=     9
   0.41591489  0.55480134  0.00000000
   0.91591489  0.55480134  0.00000000
   0.16591489  0.25573134  0.05820326
   0.66591489  0.25573134  0.05820326
   0.16591489  0.85387134  0.05820326
   0.66591489  0.85387134  0.05820326
   0.41591489  0.55480134  0.11640652
   0.91591489  0.55480134  0.11640652
   0.41591489  0.05480134  0.14483467
   0.91591489  0.05480134  0.14483467
   0.16591489  0.35387134  0.20303793
   0.66591489  0.35387134  0.20303793
   0.16591489  0.75573134  0.20303793
   0.66591489  0.75573134  0.20303793
   0.41591489  0.05480134  0.26124119
   0.91591489  0.05480134  0.26124119
   0.41592138  0.55476237  0.28866006
   0.91592123  0.55476238  0.28866081
   0.16593219  0.25722770  0.34791600
   0.66593264  0.25722758  0.34791597
   0.16588998  0.85236607  0.34791657
   0.66589045  0.85236624  0.34791656
   0.41593523  0.55477112  0.40521773
   0.91593462  0.55477115  0.40521692
   0.41591780  0.05481556  0.43493503
   0.91591747  0.05481557  0.43493507
   0.16592447  0.36333029  0.49868246
   0.66592660  0.36333035  0.49868248
   0.16589870  0.74627309  0.49867173
   0.66590084  0.74627307  0.49867176
   0.41592432  0.05480739  0.54659563
   0.91592437  0.05480739  0.54659582
   0.41591489  0.05480134  0.05820326
   0.91591489  0.05480134  0.05820326
   0.16591489  0.55480134  0.05820326
   0.66591489  0.55480134  0.05820326
   0.16591489  0.05480134  0.20303793
   0.66591489  0.05480134  0.20303793
   0.41591489  0.55480134  0.20303793
   0.91591489  0.55480134  0.20303793
   0.41593486  0.05480497  0.34971930
   0.91593500  0.05480493  0.34971949
   0.16593333  0.55480679  0.34396687
   0.66593025  0.55480681  0.34396660
   0.16593457  0.05481910  0.49797359
   0.66593464  0.05481906  0.49797370
   0.41591589  0.55480439  0.48375218
   0.91591588  0.55480438  0.48375144
Direct configuration=    10
   0.41591489  0.55480134  0.00000000
   0.91591489  0.55480134  0.00000000
   0.16591489  0.25573134  0.05820326
   0.66591489  0.25573134  0.05820326
   0.16591489  0.85387134  0.05820326
   0.66591489  0.85387134  0.05820326
   0.41591489  0.55480134  0.11640652
   0.91591489  0.55480134  0.11640652
   0.41591489  0.05480134  0.14483467
   0.91591489  0.05480134  0.14483467
   0.16591489  0.35387134  0.20303793
   0.66591489  0.35387134  0.20303793
   0.16591489  0.75573134  0.20303793
   0.66591489  0.75573134  0.20303793
   0.41591489  0.05480134  0.26124119
   0.91591489  0.05480134  0.26124119
   0.41593168  0.55476365  0.28810815
   0.91593197  0.55476364  0.28810888
   0.16592441  0.25696312  0.34784180
   0.66592457  0.25696317  0.34784175
   0.16589987  0.85263631  0.34784395
   0.66590005  0.85263632  0.34784391
   0.41593317  0.55478081  0.40530072
   0.91593285  0.55478085  0.40530001
   0.41590876  0.05480608  0.43508377
   0.91590877  0.05480608  0.43508377
   0.16592604  0.36334235  0.49900987
   0.66592762  0.36334228  0.49900991
   0.16590645  0.74624632  0.49899937
   0.66590804  0.74624644  0.49899941
   0.41592052  0.05480199  0.54702769
   0.91592059  0.05480200  0.54702782
   0.41591489  0.05480134  0.05820326
   0.91591489  0.05480134  0.05820326
   0.16591489  0.55480134  0.05820326
   0.66591489  0.55480134  0.05820326
   0.16591489  0.05480134  0.20303793
   0.66591489  0.05480134  0.20303793
   0.41591489  0.55480134  0.20303793
   0.91591489  0.55480134  0.20303793
   0.41593894  0.05480498  0.34981988
   0.91593895  0.05480495  0.34982003
   0.16593588  0.55480852  0.34387766
   0.66593253  0.55480854  0.34387752
   0.16593647  0.05482217  0.49807880
   0.66593663  0.05482213  0.49807897
   0.41591864  0.55479822  0.48360707
   0.91591851  0.55479821  0.48360634
Direct configuration=    11
   0.41591489  0.55480134  0.00000000
   0.91591489  0.55480134  0.00000000
   0.16591489  0.25573134  0.05820326
   0.66591489  0.25573134  0.05820326
   0.16591489  0.85387134  0.05820326
   0.66591489  0.85387134  0.05820326
   0.41591489  0.55480134  0.11640652
   0.91591489  0.55480134  0.11640652
   0.41591489  0.05480134  0.14483467
   0.91591489  0.05480134  0.14483467
   0.16591489  0.35387134  0.20303793
   0.66591489  0.35387134  0.20303793
   0.16591489  0.75573134  0.20303793
   0.66591489  0.75573134  0.20303793
   0.41591489  0.05480134  0.26124119
   0.91591489  0.05480134  0.26124119
   0.41593909  0.55476456  0.28771082
   0.91593970  0.55476455  0.28771156
   0.16591881  0.25677266  0.34778838
   0.66591875  0.25677281  0.34778831
   0.16590699  0.85283086  0.34779167
   0.66590695  0.85283074  0.34779161
   0.41593169  0.55478779  0.40536047
   0.91593157  0.55478784  0.40535982
   0.41590224  0.05479925  0.43519084
   0.91590250  0.05479925  0.43519082
   0.16592716  0.36335104  0.49924557
   0.66592835  0.36335087  0.49924562
   0.16591203  0.74622705  0.49923523
   0.66591323  0.74622726  0.49923528
   0.41591778  0.05479811  0.54733872
   0.91591788  0.05479811  0.54733882
   0.41591489  0.05480134  0.05820326
   0.91591489  0.05480134  0.05820326
   0.16591489  0.55480134  0.05820326
   0.66591489  0.55480134  0.05820326
   0.16591489  0.05480134  0.20303793
   0.66591489  0.05480134  0.20303793
   0.41591489  0.55480134  0.20303793
   0.91591489  0.55480134  0.20303793
   0.41594187  0.05480499  0.34989229
   0.91594179  0.05480496  0.34989240
   0.16593771  0.55480976  0.34381344
   0.66593417  0.55480978  0.34381339
   0.16593784  0.05482438  0.49815454
   0.66593807  0.05482434  0.49815476
   0.41592061  0.55479377  0.48350261
   0.91592039  0.55479376  0.48350189
Direct configuration=    12
   0.41591489  0.55480134  0.00000000
   0.91591489  0.55480134  0.00000000
   0.16591489  0.25573134  0.05820326
   0.66591489  0.25573134  0.05820326
   0.16591489  0.85387134  0.05820326
   0.66591489  0.85387134  0.05820326
   0.41591489  0.55480134  0.11640652
   0.91591489  0.55480134  0.11640652
   0.41591489  0.05480134  0.14483467
   0.91591489  0.05480134  0.14483467
   0.16591489  0.35387134  0.20303793
   0.66591489  0.35387134  0.20303793
   0.16591489  0.75573134  0.20303793
   0.66591489  0.75573134  0.20303793
   0.41591489  0.05480134  0.26124119
   0.91591489  0.05480134  0.26124119
   0.41594366  0.55477649  0.28772290
   0.91594449  0.55477648  0.28772354
   0.16591637  0.25688348  0.34769025
   0.66591626  0.25688367  0.34769017
   0.16591073  0.85272061  0.34769525
   0.66591063  0.85272045  0.34769518
   0.41593285  0.55479755  0.40532431
   0.91593299  0.55479760  0.40532378
   0.41589372  0.05479358  0.43546243
   0.91589414  0.05479358  0.43546240
   0.16591711  0.36342775  0.49954720
   0.66591794  0.36342753  0.49954725
   0.16591751  0.74613807  0.49953864
   0.66591835  0.74613829  0.49953869
   0.41592068  0.05479978  0.54779001
   0.91592080  0.05479978  0.54779007
   0.41591489  0.05480134  0.05820326
   0.91591489  0.05480134  0.05820326
   0.16591489  0.55480134  0.05820326
   0.66591489  0.55480134  0.05820326
   0.16591489  0.05480134  0.20303793
   0.66591489  0.05480134  0.20303793
   0.41591489  0.55480134  0.20303793
   0.91591489  0.55480134  0.20303793
   0.41594790  0.05480457  0.35001648
   0.91594769  0.05480454  0.35001653
   0.16594414  0.55481038  0.34345493
   0.66594043  0.55481039  0.34345498
   0.16594103  0.05481894  0.49838771
   0.66594112  0.05481892  0.49838795
   0.41592599  0.55479017  0.48360761
   0.91592563  0.55479016  0.48360697
Direct configuration=    13
   0.41591489  0.55480134  0.00000000
   0.91591489  0.55480134  0.00000000
   0.16591489  0.25573134  0.05820326
   0.66591489  0.25573134  0.05820326
   0.16591489  0.85387134  0.05820326
   0.66591489  0.85387134  0.05820326
   0.41591489  0.55480134  0.11640652
   0.91591489  0.55480134  0.11640652
   0.41591489  0.05480134  0.14483467
   0.91591489  0.05480134  0.14483467
   0.16591489  0.35387134  0.20303793
   0.66591489  0.35387134  0.20303793
   0.16591489  0.75573134  0.20303793
   0.66591489  0.75573134  0.20303793
   0.41591489  0.05480134  0.26124119
   0.91591489  0.05480134  0.26124119
   0.41594984  0.55479264  0.28773924
   0.91595097  0.55479262  0.28773975
   0.16591307  0.25703345  0.34755746
   0.66591289  0.25703366  0.34755738
   0.16591580  0.85257144  0.34756478
   0.66591560  0.85257122  0.34756470
   0.41593441  0.55481076  0.40527538
   0.91593490  0.55481080  0.40527502
   0.41588220  0.05478591  0.43582992
   0.91588283  0.05478591  0.43582988
   0.16590351  0.36353154  0.49995534
   0.66590385  0.36353127  0.49995540
   0.16592492  0.74601768  0.49994918
   0.66592528  0.74601791  0.49994924
   0.41592460  0.05480205  0.54840065
   0.91592477  0.05480204  0.54840066
   0.41591489  0.05480134  0.05820326
   0.91591489  0.05480134  0.05820326
   0.16591489  0.55480134  0.05820326
   0.66591489  0.55480134  0.05820326
   0.16591489  0.05480134  0.20303793
   0.66591489  0.05480134  0.20303793
   0.41591489  0.55480134  0.20303793
   0.91591489  0.55480134  0.20303793
   0.41595605  0.05480400  0.35018452
   0.91595567  0.05480398  0.35018448
   0.16595284  0.55481121  0.34296983
   0.66594889  0.55481122  0.34297002
   0.16594534  0.05481157  0.49870321
   0.66594524  0.05481158  0.49870350
   0.41593327  0.55478530  0.48374969
   0.91593271  0.55478529  0.48374916
Direct configuration=    14
   0.41591489  0.55480134  0.00000000
   0.91591489  0.55480134  0.00000000
   0.16591489  0.25573134  0.05820326
   0.66591489  0.25573134  0.05820326
   0.16591489  0.85387134  0.05820326
   0.66591489  0.85387134  0.05820326
   0.41591489  0.55480134  0.11640652
   0.91591489  0.55480134  0.11640652
   0.41591489  0.05480134  0.14483467
   0.91591489  0.05480134  0.14483467
   0.16591489  0.35387134  0.20303793
   0.66591489  0.35387134  0.20303793
   0.16591489  0.75573134  0.20303793
   0.66591489  0.75573134  0.20303793
   0.41591489  0.05480134  0.26124119
   0.91591489  0.05480134  0.26124119
   0.41595024  0.55480858  0.28782724
   0.91595124  0.55480857  0.28782775
   0.16591199  0.25713464  0.34746463
   0.66591174  0.25713483  0.34746455
   0.16591820  0.85247307  0.34747363
   0.66591792  0.85247284  0.34747356
   0.41593609  0.55481873  0.40532343
   0.91593668  0.55481877  0.40532315
   0.41587788  0.05478481  0.43609318
   0.91587847  0.05478480  0.43609313
   0.16589361  0.36369628  0.50021825
   0.66589381  0.36369598  0.50021831
   0.16592919  0.74584362  0.50021463
   0.66592942  0.74584386  0.50021469
   0.41592775  0.05479938  0.54866263
   0.91592786  0.05479937  0.54866260
   0.41591489  0.05480134  0.05820326
   0.91591489  0.05480134  0.05820326
   0.16591489  0.55480134  0.05820326
   0.66591489  0.55480134  0.05820326
   0.16591489  0.05480134  0.20303793
   0.66591489  0.05480134  0.20303793
   0.41591489  0.55480134  0.20303793
   0.91591489  0.55480134  0.20303793
   0.41596320  0.05480280  0.35034929
   0.91596287  0.05480279  0.35034921
   0.16595968  0.55481187  0.34293284
   0.66595625  0.55481187  0.34293305
   0.16595059  0.05480328  0.49918928
   0.66595053  0.05480330  0.49918960
   0.41593606  0.55478115  0.48373060
   0.91593554  0.55478115  0.48373017
Direct configuration=    15
   0.41591489  0.55480134  0.00000000
   0.91591489  0.55480134  0.00000000
   0.16591489  0.25573134  0.05820326
   0.66591489  0.25573134  0.05820326
   0.16591489  0.85387134  0.05820326
   0.66591489  0.85387134  0.05820326
   0.41591489  0.55480134  0.11640652
   0.91591489  0.55480134  0.11640652
   0.41591489  0.05480134  0.14483467
   0.91591489  0.05480134  0.14483467
   0.16591489  0.35387134  0.20303793
   0.66591489  0.35387134  0.20303793
   0.16591489  0.75573134  0.20303793
   0.66591489  0.75573134  0.20303793
   0.41591489  0.05480134  0.26124119
   0.91591489  0.05480134  0.26124119
   0.41595126  0.55484933  0.28805212
   0.91595192  0.55484932  0.28805262
   0.16590924  0.25739326  0.34722738
   0.66590880  0.25739337  0.34722733
   0.16592432  0.85222169  0.34724069
   0.66592384  0.85222143  0.34724064
   0.41594040  0.55483911  0.40544622
   0.91594123  0.55483912  0.40544615
   0.41586684  0.05478199  0.43676598
   0.91586733  0.05478198  0.43676590
   0.16586830  0.36411728  0.50089015
   0.66586816  0.36411690  0.50089020
   0.16594011  0.74539880  0.50089303
   0.66593999  0.74539908  0.50089307
   0.41593578  0.05479255  0.54933215
   0.91593577  0.05479254  0.54933202
   0.41591489  0.05480134  0.05820326
   0.91591489  0.05480134  0.05820326
   0.16591489  0.55480134  0.05820326
   0.66591489  0.55480134  0.05820326
   0.16591489  0.05480134  0.20303793
   0.66591489  0.05480134  0.20303793
   0.41591489  0.55480134  0.20303793
   0.91591489  0.55480134  0.20303793
   0.41598145  0.05479973  0.35077037
   0.91598126  0.05479974  0.35077018
   0.16597717  0.55481355  0.34283830
   0.66597505  0.55481352  0.34283859
   0.16596399  0.05478209  0.50043150
   0.66596405  0.05478214  0.50043189
   0.41594318  0.55477056  0.48368181
   0.91594278  0.55477057  0.48368163
Direct configuration=    16
   0.41591489  0.55480134  0.00000000
   0.91591489  0.55480134  0.00000000
   0.16591489  0.25573134  0.05820326
   0.66591489  0.25573134  0.05820326
   0.16591489  0.85387134  0.05820326
   0.66591489  0.85387134  0.05820326
   0.41591489  0.55480134  0.11640652
   0.91591489  0.55480134  0.11640652
   0.41591489  0.05480134  0.14483467
   0.91591489  0.05480134  0.14483467
   0.16591489  0.35387134  0.20303793
   0.66591489  0.35387134  0.20303793
   0.16591489  0.75573134  0.20303793
   0.66591489  0.75573134  0.20303793
   0.41591489  0.05480134  0.26124119
   0.91591489  0.05480134  0.26124119
   0.41595093  0.55483622  0.28797977
   0.91595170  0.55483621  0.28798027
   0.16591013  0.25731005  0.34730371
   0.66590974  0.25731019  0.34730366
   0.16592235  0.85230257  0.34731563
   0.66592194  0.85230232  0.34731558
   0.41593901  0.55483255  0.40540671
   0.91593977  0.55483257  0.40540657
   0.41587039  0.05478290  0.43654951
   0.91587092  0.05478289  0.43654944
   0.16587644  0.36398183  0.50067397
   0.66587641  0.36398147  0.50067403
   0.16593659  0.74554192  0.50067476
   0.66593659  0.74554218  0.50067481
   0.41593319  0.05479474  0.54911674
   0.91593322  0.05479474  0.54911664
   0.41591489  0.05480134  0.05820326
   0.91591489  0.05480134  0.05820326
   0.16591489  0.55480134  0.05820326
   0.66591489  0.55480134  0.05820326
   0.16591489  0.05480134  0.20303793
   0.66591489  0.05480134  0.20303793
   0.41591489  0.55480134  0.20303793
   0.91591489  0.55480134  0.20303793
   0.41597558  0.05480072  0.35063489
   0.91597535  0.05480072  0.35063473
   0.16597154  0.55481301  0.34286872
   0.66596900  0.55481299  0.34286898
   0.16595968  0.05478891  0.50003183
   0.66595970  0.05478895  0.50003219
   0.41594088  0.55477397  0.48369751
   0.91594045  0.55477397  0.48369725
Direct configuration=    17
   0.41591489  0.55480134  0.00000000
   0.91591489  0.55480134  0.00000000
   0.16591489  0.25573134  0.05820326
   0.66591489  0.25573134  0.05820326