vasp.5.4.1 08Jul2015 (build Apr 24 2014 00:09:29) complex standard with constrain (TS)    
 executed on IBM of Center for Computational Chemistry date 2017.12.17  20:40:38
 running on   24 total cores
 distrk:  each k-point on   24 cores,    1 groups
 distr:  one band on NCORES_PER_BAND=   6 cores,    4 groups


--------------------------------------------------------------------------------------------------------


 INCAR:
 POTCAR:    PAW_PBE O 08Apr2002                   
 POTCAR:    PAW_PBE Os 17Jan2003                  
 POTCAR:    PAW_PBE O 08Apr2002                   
   VRHFIN =O: s2p4                                                              
   LEXCH  = PE                                                                  
   EATOM  =   432.3788 eV,   31.7789 Ry                                         
                                                                                
   TITEL  = PAW_PBE O 08Apr2002                                                 
   LULTRA =        F    use ultrasoft PP ?                                      
   IUNSCR =        1    unscreen: 0-lin 1-nonlin 2-no                           
   RPACOR =    1.200    partial core radius                                     
   POMASS =   16.000; ZVAL   =    6.000    mass and valenz                      
   RCORE  =    1.520    outmost cutoff radius                                   
   RWIGS  =    1.550; RWIGS  =    0.820    wigner-seitz radius (au A)           
   ENMAX  =  400.000; ENMIN  =  300.000 eV                                      
   ICORE  =        2    local potential                                         
   LCOR   =        T    correct aug charges                                     
   LPAW   =        T    paw PP                                                  
   EAUG   =  605.392                                                            
   DEXC   =    0.000                                                            
   RMAX   =    1.553    core radius for proj-oper                               
   RAUG   =    1.300    factor for augmentation sphere                          
   RDEP   =    1.550    radius for radial grids                                 
   RDEPT  =    1.329    core radius for aug-charge                              
                                                                                
   Atomic configuration                                                         
    4 entries                                                                   
     n  l   j            E        occ.                                          
     1  0  0.50      -514.6923   2.0000                                         
     2  0  0.50       -23.9615   2.0000                                         
     2  1  0.50        -9.0305   4.0000                                         
     3  2  1.50        -9.5241   0.0000                                         
   Description                                                                  
     l       E           TYP  RCUT    TYP  RCUT                                 
     0    -23.9615318     23  1.200                                             
     0     -9.5240782     23  1.200                                             
     1     -9.0304911     23  1.520                                             
     1      8.1634956     23  1.520                                             
     2     -9.5240782      7  1.500                                             
  local pseudopotential read in
  partial core-charges read in
  partial kinetic energy density read in
  kinetic energy density of atom read in
  atomic valenz-charges read in
  non local Contribution for L=           0  read in
    real space projection operators read in
  non local Contribution for L=           0  read in
    real space projection operators read in
  non local Contribution for L=           1  read in
    real space projection operators read in
  non local Contribution for L=           1  read in
    real space projection operators read in
    PAW grid and wavefunctions read in
 
   number of l-projection  operators is LMAX  =           4
   number of lm-projection operators is LMMAX =           8
 
 POTCAR:    PAW_PBE Os 17Jan2003                  
   VRHFIN =Os: 6s5d                                                             
   LEXCH  = PE                                                                  
   EATOM  =   417.5999 eV,   30.6927 Ry                                         
                                                                                
   TITEL  = PAW_PBE Os 17Jan2003                                                
   LULTRA =        F    use ultrasoft PP ?                                      
   IUNSCR =        1    unscreen: 0-lin 1-nonlin 2-no                           
   RPACOR =    2.250    partial core radius                                     
   POMASS =  190.200; ZVAL   =    8.000    mass and valenz                      
   RCORE  =    2.700    outmost cutoff radius                                   
   RWIGS  =    2.670; RWIGS  =    1.413    wigner-seitz radius (au A)           
   ENMAX  =  228.022; ENMIN  =  171.017 eV                                      
   RCLOC  =    2.004    cutoff for local pot                                    
   LCOR   =        T    correct aug charges                                     
   LPAW   =        T    paw PP                                                  
   EAUG   =  365.080                                                            
   DEXC   =    0.000                                                            
   RMAX   =    2.766    core radius for proj-oper                               
   RAUG   =    1.300    factor for augmentation sphere                          
   RDEP   =    2.738    radius for radial grids                                 
   RDEPT  =    2.220    core radius for aug-charge                              
                                                                                
   Atomic configuration                                                         
   16 entries                                                                   
     n  l   j            E        occ.                                          
     1  0  0.50    -73844.2437   2.0000                                         
     2  0  0.50    -12856.6893   2.0000                                         
     2  1  1.50    -11191.7995   6.0000                                         
     3  0  0.50     -2990.1422   2.0000                                         
     3  1  1.50     -2501.5221   6.0000                                         
     3  2  2.50     -1956.5818  10.0000                                         
     4  0  0.50      -629.1606   2.0000                                         
     4  1  1.50      -468.9548   6.0000                                         
     4  2  2.50      -270.2868  10.0000                                         
     4  3  3.50       -49.5699  14.0000                                         
     5  0  0.50       -89.1521   2.0000                                         
     5  1  1.50       -48.6063   6.0000                                         
     5  2  2.50        -4.7055   7.0000                                         
     6  0  0.50        -5.4288   1.0000                                         
     6  1  1.50        -2.7212   0.0000                                         
     5  3  2.50        -6.8029   0.0000                                         
   Description                                                                  
     l       E           TYP  RCUT    TYP  RCUT                                 
     2     -4.7055230     23  2.500                                             
     2     -6.0661056     23  2.500                                             
     0     -5.4288441     23  2.500                                             
     0      3.7338294     23  2.500                                             
     1     -2.7211652     23  2.700                                             
     1     27.2116520     23  2.700                                             
  local pseudopotential read in
  partial core-charges read in
  partial kinetic energy density read in
  atomic valenz-charges read in
  non local Contribution for L=           2  read in
    real space projection operators read in
  non local Contribution for L=           2  read in
    real space projection operators read in
  non local Contribution for L=           0  read in
    real space projection operators read in
  non local Contribution for L=           0  read in
    real space projection operators read in
  non local Contribution for L=           1  read in
    real space projection operators read in
  non local Contribution for L=           1  read in
    real space projection operators read in
    PAW grid and wavefunctions read in
 
   number of l-projection  operators is LMAX  =           6
   number of lm-projection operators is LMMAX =          18
 
 Optimization of the real space projectors (new method)

 maximal supplied QI-value         = 24.76
 optimisation between [QCUT,QGAM] = [ 11.39, 22.77] = [ 36.31,145.25] Ry 
 Optimized for a Real-space Cutoff    1.10 Angstroem

   l    n(q)    QCUT    max X(q) W(low)/X(q) W(high)/X(q)  e(spline) 
   0      7    11.387    20.381    0.22E-03    0.48E-03    0.18E-06
   0      7    11.387    15.268    0.22E-03    0.52E-03    0.19E-06
   1      7    11.387     5.964    0.22E-03    0.73E-03    0.24E-06
   1      7    11.387     5.382    0.19E-03    0.60E-03    0.21E-06
 Optimization of the real space projectors (new method)

 maximal supplied QI-value         = 13.98
 optimisation between [QCUT,QGAM] = [ 11.33, 22.79] = [ 35.93,145.49] Ry 
 Optimized for a Real-space Cutoff    1.61 Angstroem

   l    n(q)    QCUT    max X(q) W(low)/X(q) W(high)/X(q)  e(spline) 
   2     10    11.327   152.873    0.95E-04    0.32E-03    0.94E-06
   2     10    11.327   151.010    0.95E-04    0.32E-03    0.94E-06
   0     11    11.327    72.114    0.44E-04    0.20E-04    0.98E-07
   0     11    11.327    44.596    0.38E-04    0.19E-04    0.91E-07
   1     11    11.327    13.742    0.15E-03    0.10E-03    0.26E-06
   1     11    11.327     8.461    0.11E-03    0.76E-04    0.20E-06
  PAW_PBE O 08Apr2002                   :
 energy of atom  1       EATOM= -432.3788
 kinetic energy error for atom=    0.0224 (will be added to EATOM!!)
  PAW_PBE Os 17Jan2003                  :
 energy of atom  2       EATOM= -417.5999
 kinetic energy error for atom=    0.0029 (will be added to EATOM!!)
 
 
 POSCAR: AutoCreatByScript                       
  positions in direct lattice
  No initial velocities read in
 exchange correlation table for  LEXCH =        8
   RHO(1)=    0.500       N(1)  =     2000
   RHO(2)=  100.500       N(2)  =     4000
 


--------------------------------------------------------------------------------------------------------


 ion  position               nearest neighbor table
   1  0.131  0.570  0.000-  35 2.02  36 2.02
   2  0.631  0.570  0.000-  35 2.02  36 2.02
   3  0.381  0.262  0.056-  35 1.96  34 2.02  33 2.02
   4  0.881  0.262  0.056-  36 1.96  34 2.02  33 2.02
   5  0.381  0.878  0.056-  35 1.96  34 2.02  33 2.02
   6  0.881  0.878  0.056-  36 1.96  34 2.02  33 2.02
   7  0.131  0.570  0.111-  39 1.96  36 2.02  35 2.02
   8  0.631  0.570  0.111-  40 1.96  36 2.02  35 2.02
   9  0.131  0.070  0.145-  33 1.96  37 2.02  38 2.02
  10  0.631  0.070  0.145-  34 1.96  37 2.02  38 2.02
  11  0.381  0.378  0.200-  37 1.96  39 2.02  40 2.02
  12  0.881  0.378  0.200-  38 1.96  39 2.02  40 2.02
  13  0.381  0.762  0.200-  37 1.96  39 2.02  40 2.02
  14  0.881  0.762  0.200-  38 1.96  39 2.02  40 2.02
  15  0.131  0.070  0.256-  41 1.96  38 2.02  37 2.02
  16  0.631  0.070  0.256-  42 1.96  38 2.02  37 2.02
  17  0.131  0.570  0.289-  39 1.96  43 2.02  44 2.02
  18  0.631  0.570  0.289-  40 1.96  43 2.02  44 2.02
  19  0.381  0.262  0.345-  43 1.96  42 2.02  41 2.02
  20  0.881  0.262  0.345-  44 1.96  42 2.02  41 2.02
  21  0.381  0.878  0.345-  43 1.96  42 2.02  41 2.02
  22  0.881  0.878  0.345-  44 1.96  42 2.02  41 2.02
  23  0.131  0.570  0.400-  47 1.96  44 2.02  43 2.02
  24  0.631  0.570  0.400-  48 1.96  44 2.02  43 2.02
  25  0.131  0.070  0.434-  41 1.96  45 2.02  46 2.02
  26  0.631  0.070  0.434-  42 1.96  45 2.02  46 2.02
  27  0.381  0.378  0.490-  45 1.96  47 2.02  48 2.02
  28  0.881  0.378  0.490-  46 1.96  47 2.02  48 2.02
  29  0.381  0.762  0.490-  45 1.96  47 2.02  48 2.02
  30  0.881  0.762  0.490-  46 1.96  47 2.02  48 2.02
  31  0.131  0.070  0.545-  45 2.02  46 2.02
  32  0.631  0.070  0.545-  45 2.02  46 2.02
  33  0.131  0.070  0.056-   9 1.96   4 2.02   5 2.02   6 2.02   3 2.02  34 3.21  34 3.21
  34  0.631  0.070  0.056-  10 1.96   4 2.02   5 2.02   6 2.02   3 2.02  33 3.21  33 3.21
  35  0.381  0.570  0.056-   3 1.96   5 1.96   1 2.02   2 2.02   7 2.02   8 2.02  36 3.21  36 3.21

  36  0.881  0.570  0.056-   4 1.96   6 1.96   1 2.02   2 2.02   7 2.02   8 2.02  35 3.21  35 3.21

  37  0.381  0.070  0.200-  11 1.96  13 1.96   9 2.02  10 2.02  15 2.02  16 2.02  38 3.21  38 3.21

  38  0.881  0.070  0.200-  12 1.96  14 1.96   9 2.02  10 2.02  15 2.02  16 2.02  37 3.21  37 3.21

  39  0.131  0.570  0.200-   7 1.96  17 1.96  12 2.02  13 2.02  14 2.02  11 2.02  40 3.21  40 3.21

  40  0.631  0.570  0.200-   8 1.96  18 1.96  12 2.02  13 2.02  14 2.02  11 2.02  39 3.21  39 3.21

  41  0.131  0.070  0.345-  15 1.96  25 1.96  20 2.02  21 2.02  22 2.02  19 2.02  42 3.21  42 3.21

  42  0.631  0.070  0.345-  16 1.96  26 1.96  20 2.02  21 2.02  22 2.02  19 2.02  41 3.21  41 3.21

  43  0.381  0.570  0.345-  19 1.96  21 1.96  17 2.02  18 2.02  23 2.02  24 2.02  44 3.21  44 3.21

  44  0.881  0.570  0.345-  20 1.96  22 1.96  17 2.02  18 2.02  23 2.02  24 2.02  43 3.21  43 3.21

  45  0.381  0.070  0.490-  27 1.96  29 1.96  25 2.02  26 2.02  31 2.02  32 2.02  46 3.21  46 3.21

  46  0.881  0.070  0.490-  28 1.96  30 1.96  25 2.02  26 2.02  31 2.02  32 2.02  45 3.21  45 3.21

  47  0.131  0.570  0.490-  23 1.96  27 2.02  28 2.02  29 2.02  30 2.02  48 3.21  48 3.21
  48  0.631  0.570  0.490-  24 1.96  27 2.02  28 2.02  29 2.02  30 2.02  47 3.21  47 3.21
 

IMPORTANT INFORMATION: All symmetrisations will be switched off!
NOSYMM: (Re-)initialisation of all symmetry stuff for point group C_1.

 
 
 KPOINTS: mesh auto                               

Automatic generation of k-mesh.
Space group operators:
 irot       det(A)        alpha          n_x          n_y          n_z        tau_x        tau_y        tau_z
    1     1.000000     0.000000     1.000000     0.000000     0.000000     0.000000     0.000000     0.000000
 
 Subroutine IBZKPT returns following result:
 ===========================================
 
 Found     10 irreducible k-points:
 
 Following reciprocal coordinates:
            Coordinates               Weight
  0.000000  0.000000  0.000000      1.000000
  0.250000  0.000000  0.000000      2.000000
  0.500000  0.000000  0.000000      1.000000
  0.000000  0.250000  0.000000      2.000000
  0.250000  0.250000  0.000000      2.000000
  0.500000  0.250000  0.000000      2.000000
 -0.250000  0.250000  0.000000      2.000000
  0.000000  0.500000  0.000000      1.000000
  0.250000  0.500000  0.000000      2.000000
  0.500000  0.500000  0.000000      1.000000
 
 Following cartesian coordinates:
            Coordinates               Weight
  0.000000  0.000000  0.000000      1.000000
  0.000000  0.000000  0.038928      2.000000
  0.000000  0.000000  0.077857      1.000000
  0.027783 -0.027783  0.000000      2.000000
  0.027783 -0.027783  0.038928      2.000000
  0.027783 -0.027783  0.077857      2.000000
  0.027783 -0.027783 -0.038928      2.000000
  0.055566 -0.055566  0.000000      1.000000
  0.055566 -0.055566  0.038928      2.000000
  0.055566 -0.055566  0.077857      1.000000
 


--------------------------------------------------------------------------------------------------------




 Dimension of arrays:
   k-points           NKPTS =     10   k-points in BZ     NKDIM =     10   number of bands    NBANDS=    216
   number of dos      NEDOS =    301   number of ions     NIONS =     48
   non local maximal  LDIM  =      6   non local SUM 2l+1 LMDIM =     18
   total plane-waves  NPLWV = 368640
   max r-space proj   IRMAX =   7238   max aug-charges    IRDMAX=  24429
   dimension x,y,z NGX =    48 NGY =   48 NGZ =  160
   dimension x,y,z NGXF=    96 NGYF=   96 NGZF=  320
   support grid    NGXF=    96 NGYF=   96 NGZF=  320
   ions per type =              32  16
 NGX,Y,Z   is equivalent  to a cutoff of  12.43, 12.54, 12.10 a.u.
 NGXF,Y,Z  is equivalent  to a cutoff of  24.85, 25.08, 24.20 a.u.


 I would recommend the setting:
   dimension x,y,z NGX =    47 NGY =   46 NGZ =  160
 SYSTEM =  OsO2_suf110_2x1x4_2fix                  
 POSCAR =  AutoCreatByScript                       

 Startparameter for this run:
   NWRITE =      2    write-flag & timer
   PREC   = accura    normal or accurate (medium, high low for compatibility)
   ISTART =      0    job   : 0-new  1-cont  2-samecut
   ICHARG =      2    charge: 1-file 2-atom 10-const
   ISPIN  =      2    spin polarized calculation?
   LNONCOLLINEAR =      F non collinear calculations
   LSORBIT =      F    spin-orbit coupling
   INIWAV =      1    electr: 0-lowe 1-rand  2-diag
   LASPH  =      F    aspherical Exc in radial PAW
   METAGGA=      F    non-selfconsistent MetaGGA calc.

 Electronic Relaxation 1
   ENCUT  =  500.0 eV  36.75 Ry    6.06 a.u.  11.71 11.60 40.08*2*pi/ulx,y,z
   ENINI  =  500.0     initial cutoff
   ENAUG  =  605.4 eV  augmentation charge cutoff
   NELM   =    300;   NELMIN=  3; NELMDL= -5     # of ELM steps 
   EDIFF  = 0.1E-03   stopping-criterion for ELM
   LREAL  =      T    real-space projection
   NLSPLINE    = F    spline interpolate recip. space projectors
   LCOMPAT=      F    compatible to vasp.4.4
   GGA_COMPAT  = T    GGA compatible to vasp.4.4-vasp.4.6
   LMAXPAW     = -100 max onsite density
   LMAXMIX     =    2 max onsite mixed and CHGCAR
   VOSKOWN=      0    Vosko Wilk Nusair interpolation
   ROPT   =   -0.00025  -0.00025
 Ionic relaxation
   EDIFFG = -.5E-01   stopping-criterion for IOM
   NSW    =   1000    number of steps for IOM
   NBLOCK =      1;   KBLOCK =   1000    inner block; outer block 
   IBRION =      2    ionic relax: 0-MD 1-quasi-New 2-CG
   NFREE  =      1    steps in history (QN), initial steepest desc. (CG)
   ISIF   =      2    stress and relaxation
   IWAVPR =     11    prediction:  0-non 1-charg 2-wave 3-comb
   ISYM   =      0    0-nonsym 1-usesym 2-fastsym
   LCORR  =      T    Harris-Foulkes like correction to forces

   POTIM  = 0.1000    time-step for ionic-motion
   TEIN   =    0.0    initial temperature
   TEBEG  =    0.0;   TEEND  =   0.0 temperature during run
   SMASS  =  -3.00    Nose mass-parameter (am)
   estimated Nose-frequenzy (Omega)   =  0.10E-29 period in steps =****** mass=  -0.942E-27a.u.
   SCALEE = 1.0000    scale energy and forces
   NPACO  =    256;   APACO  = 16.0  distance and # of slots for P.C.
   PSTRESS=    0.0 pullay stress

  Mass of Ions in am
   POMASS =  16.00190.20
  Ionic Valenz
   ZVAL   =   6.00  8.00
  Atomic Wigner-Seitz radii
   RWIGS  =  -1.00 -1.00
  virtual crystal weights 
   VCA    =   1.00  1.00
   NELECT =     320.0000    total number of electrons
   NUPDOWN=      -1.0000    fix difference up-down

 DOS related values:
   EMIN   =  10.00;   EMAX   =-10.00  energy-range for DOS
   EFERMI =   0.00
   ISMEAR =     0;   SIGMA  =   0.05  broadening in eV -4-tet -1-fermi 0-gaus

 Electronic relaxation 2 (details)
   IALGO  =     68    algorithm
   LDIAG  =      T    sub-space diagonalisation (order eigenvalues)
   LSUBROT=      F    optimize rotation matrix (better conditioning)
   TURBO    =      0    0=normal 1=particle mesh
   IRESTART =      0    0=no restart 2=restart with 2 vectors
   NREBOOT  =      0    no. of reboots
   NMIN     =      0    reboot dimension
   EREF     =   0.00    reference energy to select bands
   IMIX   =      4    mixing-type and parameters
     AMIX     =   0.40;   BMIX     =  1.00
     AMIX_MAG =   1.60;   BMIX_MAG =  1.00
     AMIN     =   0.10
     WC   =   100.;   INIMIX=   1;  MIXPRE=   1;  MAXMIX= -45

 Intra band minimization:
   WEIMIN = 0.0010     energy-eigenvalue tresh-hold
   EBREAK =  0.12E-06  absolut break condition
   DEPER  =   0.30     relativ break condition  

   TIME   =   0.40     timestep for ELM

  volume/ion in A,a.u.               =      18.72       126.30
  Fermi-wavevector in a.u.,A,eV,Ry     =   1.160492  2.193013 18.323548  1.346743
  Thomas-Fermi vector in A             =   2.297074
 
 Write flags
   LWAVE  =      F    write WAVECAR
   LCHARG =      F    write CHGCAR
   LVTOT  =      F    write LOCPOT, total local potential
   LVHAR  =      F    write LOCPOT, Hartree potential only
   LELF   =      F    write electronic localiz. function (ELF)
   LORBIT =      0    0 simple, 1 ext, 2 COOP (PROOUT)


 Dipole corrections
   LMONO  =      F    monopole corrections only (constant potential shift)
   LDIPOL =      F    correct potential (dipole corrections)
   IDIPOL =      0    1-x, 2-y, 3-z, 4-all directions 
   EPSILON=  1.0000000 bulk dielectric constant

 Exchange correlation treatment:
   GGA     =    --    GGA type
   LEXCH   =     8    internal setting for exchange type
   VOSKOWN=      0    Vosko Wilk Nusair interpolation
   LHFCALC =     F    Hartree Fock is set to
   LHFONE  =     F    Hartree Fock one center treatment
   AEXX    =    0.0000 exact exchange contribution

 Linear response parameters
   LEPSILON=     F    determine dielectric tensor
   LRPA    =     F    only Hartree local field effects (RPA)
   LNABLA  =     F    use nabla operator in PAW spheres
   LVEL    =     F    velocity operator in full k-point grid
   LINTERFAST=   F  fast interpolation
   KINTER  =     0    interpolate to denser k-point grid
   CSHIFT  =0.1000    complex shift for real part using Kramers Kronig
   OMEGAMAX=  -1.0    maximum frequency
   DEG_THRESHOLD= 0.2000000E-02 threshold for treating states as degnerate
   RTIME   =    0.100 relaxation time in fs

 Orbital magnetization related:
   ORBITALMAG=     F  switch on orbital magnetization
   LCHIMAG   =     F  perturbation theory with respect to B field
   DQ        =  0.001000  dq finite difference perturbation B field



--------------------------------------------------------------------------------------------------------


 conjugate gradient relaxation of ions
   using selective dynamics as specified on POSCAR
 charge density and potential will be updated during run
 spin polarized calculation
 RMM-DIIS sequential band-by-band and
  variant of blocked Davidson during initial phase
 perform sub-space diagonalisation
    before iterative eigenvector-optimisation
 modified Broyden-mixing scheme, WC =      100.0
 initial mixing is a Kerker type mixing with AMIX =  0.4000 and BMIX =      1.0000
 Hartree-type preconditioning will be used
 using additional bands           56
 real space projection scheme for non local part
 use partial core corrections
 calculate Harris-corrections to forces 
   (improved forces if not selfconsistent)
 use gradient corrections 
 use of overlap-Matrix (Vanderbilt PP)
 Gauss-broadening in eV      SIGMA  =   0.05


--------------------------------------------------------------------------------------------------------


  energy-cutoff  :      500.00
  volume of cell :      898.35
      direct lattice vectors                 reciprocal lattice vectors
     0.000000000  0.000000000  6.422039890     0.000000000  0.000000000  0.155713763
     4.499147580 -4.499147580  0.000000000     0.111132163 -0.111132163  0.000000000
    15.545842160 15.545842160  0.000000000     0.032162941  0.032162941  0.000000000

  length of vectors
     6.422039890  6.362755527 21.985140821     0.155713763  0.157164611  0.045485267


 
 k-points in units of 2pi/SCALE and weight: mesh auto                               
   0.00000000  0.00000000  0.00000000       0.062
   0.00000000  0.00000000  0.03892844       0.125
   0.00000000  0.00000000  0.07785688       0.062
   0.02778304 -0.02778304  0.00000000       0.125
   0.02778304 -0.02778304  0.03892844       0.125
   0.02778304 -0.02778304  0.07785688       0.125
   0.02778304 -0.02778304 -0.03892844       0.125
   0.05556608 -0.05556608  0.00000000       0.062
   0.05556608 -0.05556608  0.03892844       0.125
   0.05556608 -0.05556608  0.07785688       0.062
 
 k-points in reciprocal lattice and weights: mesh auto                               
   0.00000000  0.00000000  0.00000000       0.062
   0.25000000  0.00000000  0.00000000       0.125
   0.50000000  0.00000000  0.00000000       0.062
   0.00000000  0.25000000  0.00000000       0.125
   0.25000000  0.25000000  0.00000000       0.125
   0.50000000  0.25000000  0.00000000       0.125
  -0.25000000  0.25000000  0.00000000       0.125
   0.00000000  0.50000000  0.00000000       0.062
   0.25000000  0.50000000  0.00000000       0.125
   0.50000000  0.50000000  0.00000000       0.062
 
 position of ions in fractional coordinates (direct lattice) 
   0.13081166  0.56969810  0.00000000
   0.63081166  0.56969810  0.00000000
   0.38081166  0.26151810  0.05551494
   0.88081166  0.26151810  0.05551494
   0.38081166  0.87787810  0.05551494
   0.88081166  0.87787810  0.05551494
   0.13081166  0.56969810  0.11102988
   0.63081166  0.56969810  0.11102988
   0.13081166  0.06969810  0.14470582
   0.63081166  0.06969810  0.14470582
   0.38081166  0.37787810  0.20022076
   0.88081166  0.37787810  0.20022076
   0.38081166  0.76151810  0.20022076
   0.88081166  0.76151810  0.20022076
   0.13081166  0.06969810  0.25573570
   0.63081166  0.06969810  0.25573570
   0.13081166  0.56969810  0.28941163
   0.63081166  0.56969810  0.28941163
   0.38081166  0.26151810  0.34492657
   0.88081166  0.26151810  0.34492657
   0.38081166  0.87787810  0.34492657
   0.88081166  0.87787810  0.34492657
   0.13081166  0.56969810  0.40044151
   0.63081166  0.56969810  0.40044151
   0.13081166  0.06969810  0.43411745
   0.63081166  0.06969810  0.43411745
   0.38081166  0.37787810  0.48963239
   0.88081166  0.37787810  0.48963239
   0.38081166  0.76151810  0.48963239
   0.88081166  0.76151810  0.48963239
   0.13081166  0.06969810  0.54514733
   0.63081166  0.06969810  0.54514733
   0.13081166  0.06969810  0.05551494
   0.63081166  0.06969810  0.05551494
   0.38081166  0.56969810  0.05551494
   0.88081166  0.56969810  0.05551494
   0.38081166  0.06969810  0.20022076
   0.88081166  0.06969810  0.20022076
   0.13081166  0.56969810  0.20022076
   0.63081166  0.56969810  0.20022076
   0.13081166  0.06969810  0.34492657
   0.63081166  0.06969810  0.34492657
   0.38081166  0.56969810  0.34492657
   0.88081166  0.56969810  0.34492657
   0.38081166  0.06969810  0.48963239
   0.88081166  0.06969810  0.48963239
   0.13081166  0.56969810  0.48963239
   0.63081166  0.56969810  0.48963239
 
 position of ions in cartesian coordinates  (Angst):
   2.56315581 -2.56315581  0.84007771
   2.56315581 -2.56315581  4.05109765
   2.03963499 -0.31358202  2.44558768
   2.03963499 -0.31358202  5.65660763
   4.81272960 -3.08667662  2.44558768
   4.81272960 -3.08667662  5.65660763
   4.28920878 -0.83710283  0.84007771
   4.28920878 -0.83710283  4.05109765
   2.56315581  1.93599177  0.84007771
   2.56315581  1.93599177  4.05109765
   4.81272960  1.41247096  2.44558768
   4.81272960  1.41247096  5.65660763
   6.53878258 -0.31358202  2.44558768
   6.53878258 -0.31358202  5.65660763
   4.28920879  3.66204475  0.84007771
   4.28920879  3.66204475  4.05109765
   7.06230339  1.93599177  0.84007771
   7.06230339  1.93599177  4.05109765
   6.53878258  4.18556556  2.44558768
   6.53878258  4.18556556  5.65660763
   9.31187718  1.41247096  2.44558768
   9.31187718  1.41247096  5.65660763
   8.78835637  3.66204475  0.84007771
   8.78835637  3.66204475  4.05109765
   7.06230339  6.43513936  0.84007771
   7.06230339  6.43513936  4.05109765
   9.31187718  5.91161854  2.44558768
   9.31187718  5.91161854  5.65660763
  11.03793016  4.18556557  2.44558768
  11.03793016  4.18556557  5.65660763
   8.78835637  8.16119233  0.84007771
   8.78835637  8.16119233  4.05109765
   1.17660851  0.54944447  0.84007771
   1.17660851  0.54944447  4.05109765
   3.42618230 -1.70012932  2.44558768
   3.42618230 -1.70012932  5.65660763
   3.42618230  2.79901826  2.44558768
   3.42618230  2.79901826  5.65660763
   5.67575609  0.54944447  0.84007771
   5.67575609  0.54944447  4.05109765
   5.67575609  5.04859205  0.84007771
   5.67575609  5.04859205  4.05109765
   7.92532988  2.79901826  2.44558768
   7.92532988  2.79901826  5.65660763
   7.92532988  7.29816584  2.44558768
   7.92532988  7.29816584  5.65660763
  10.17490367  5.04859205  0.84007771
  10.17490367  5.04859205  4.05109765
 


--------------------------------------------------------------------------------------------------------


 k-point  1 :   0.0000 0.0000 0.0000  plane waves:   22849
 k-point  2 :   0.2500 0.0000 0.0000  plane waves:   22845
 k-point  3 :   0.5000 0.0000 0.0000  plane waves:   22808
 k-point  4 :   0.0000 0.2500 0.0000  plane waves:   22847
 k-point  5 :   0.2500 0.2500 0.0000  plane waves:   22780
 k-point  6 :   0.5000 0.2500 0.0000  plane waves:   22794
 k-point  7 :  -0.2500 0.2500 0.0000  plane waves:   22780
 k-point  8 :   0.0000 0.5000 0.0000  plane waves:   22740
 k-point  9 :   0.2500 0.5000 0.0000  plane waves:   22762
 k-point 10 :   0.5000 0.5000 0.0000  plane waves:   22808

 maximum and minimum number of plane-waves per node :      3840     3746

 maximum number of plane-waves:     22849
 maximum index in each direction: 
   IXMAX=   11   IYMAX=   11   IZMAX=   40
   IXMIN=  -12   IYMIN=  -12   IZMIN=  -40

 NGX is ok and might be reduce to  48
 NGY is ok and might be reduce to  48
 WARNING: aliasing errors must be expected set NGZ to 162 to avoid them
 aliasing errors are usually negligible using standard VASP settings
 and one can safely disregard these warnings

 real space projection operators:
  total allocation   :      20113.38 KBytes
  max/ min on nodes  :       3398.56       3262.88


 parallel 3D FFT for wavefunctions:
    minimum data exchange during FFTs selected (reduces bandwidth)
 parallel 3D FFT for charge:
    minimum data exchange during FFTs selected (reduces bandwidth)


 total amount of memory used by VASP on root node   128736. kBytes
========================================================================

   base      :      30000. kBytes
   nonlr-proj:       9911. kBytes
   fftplans  :       5964. kBytes
   grid      :      14807. kBytes
   one-center:        248. kBytes
   wavefun   :      67806. kBytes
 
     INWAV:  cpu time    0.0000: real time    0.0001
 Broyden mixing: mesh for mixing (old mesh)
   NGX = 23   NGY = 23   NGZ = 81
  (NGX  = 96   NGY  = 96   NGZ  =320)
  gives a total of  42849 points

 initial charge density was supplied:
 charge density of overlapping atoms calculated
 number of electron     320.0000000 magnetization      48.0000000
 keeping initial charge density in first step


--------------------------------------------------------------------------------------------------------


 Maximum index for non-local projection operator         1109
 Maximum index for augmentation-charges         1089 (set IRDMAX)


--------------------------------------------------------------------------------------------------------


 First call to EWALD:  gamma=   0.184
 Maximum number of real-space cells 4x 4x 1
 Maximum number of reciprocal cells 2x 2x 6

 FEWALD executed in parallel
    FEWALD:  cpu time    0.0030: real time    0.0030


----------------------------------------- Iteration    1(   1)  ---------------------------------------


    POTLOK:  cpu time    0.2690: real time    0.2692
    SETDIJ:  cpu time    0.0230: real time    0.0228
     EDDAV:  cpu time   26.9209: real time   26.9276
       DOS:  cpu time    0.0030: real time    0.0031
    --------------------------------------------
      LOOP:  cpu time   27.2209: real time   27.2301

 eigenvalue-minimisations  :  8648
 total energy-change (2. order) : 0.2777543E+04  (-0.1533821E+05)
 number of electron     320.0000000 magnetization      48.0000000
 augmentation part      320.0000000 magnetization      48.0000000

 Free energy of the ion-electron system (eV)
  ---------------------------------------------------
  alpha Z        PSCENC =      1035.12072450
  Ewald energy   TEWEN  =     57877.22544267
  -Hartree energ DENC   =    -78547.87286670
  -exchange      EXHF   =         0.00000000
  -V(xc)+E(xc)   XCENC  =       379.82834526
  PAW double counting   =     17974.22483518   -17204.48438884
  entropy T*S    EENTRO =        -0.02115406
  eigenvalues    EBANDS =       746.56350736
  atomic energy  EATOM  =     20516.95828776
  Solvation  Ediel_sol  =         0.00000000
  ---------------------------------------------------
  free energy    TOTEN  =      2777.54273312 eV

  energy without entropy =     2777.56388719  energy(sigma->0) =     2777.55331015


--------------------------------------------------------------------------------------------------------




----------------------------------------- Iteration    1(   2)  ---------------------------------------


     EDDAV:  cpu time   29.2685: real time   29.2844
       DOS:  cpu time    0.0030: real time    0.0031
    --------------------------------------------
      LOOP:  cpu time   29.2715: real time   29.2901

 eigenvalue-minimisations  :  9656
 total energy-change (2. order) :-0.2823131E+04  (-0.2597445E+04)
 number of electron     320.0000000 magnetization      48.0000000
 augmentation part      320.0000000 magnetization      48.0000000

 Free energy of the ion-electron system (eV)
  ---------------------------------------------------
  alpha Z        PSCENC =      1035.12072450
  Ewald energy   TEWEN  =     57877.22544267
  -Hartree energ DENC   =    -78547.87286670
  -exchange      EXHF   =         0.00000000
  -V(xc)+E(xc)   XCENC  =       379.82834526
  PAW double counting   =     17974.22483518   -17204.48438884
  entropy T*S    EENTRO =        -0.03748047
  eigenvalues    EBANDS =     -2076.55089586
  atomic energy  EATOM  =     20516.95828776
  Solvation  Ediel_sol  =         0.00000000
  ---------------------------------------------------
  free energy    TOTEN  =       -45.58799651 eV

  energy without entropy =      -45.55051603  energy(sigma->0) =      -45.56925627


--------------------------------------------------------------------------------------------------------




----------------------------------------- Iteration    1(   3)  ---------------------------------------


     EDDAV:  cpu time   30.5934: real time   30.6008
       DOS:  cpu time    0.0030: real time    0.0031
    --------------------------------------------
      LOOP:  cpu time   30.5963: real time   30.6063

 eigenvalue-minimisations  : 10232
 total energy-change (2. order) :-0.3660236E+03  (-0.3524143E+03)
 number of electron     320.0000000 magnetization      48.0000000
 augmentation part      320.0000000 magnetization      48.0000000

 Free energy of the ion-electron system (eV)
  ---------------------------------------------------
  alpha Z        PSCENC =      1035.12072450
  Ewald energy   TEWEN  =     57877.22544267
  -Hartree energ DENC   =    -78547.87286670
  -exchange      EXHF   =         0.00000000
  -V(xc)+E(xc)   XCENC  =       379.82834526
  PAW double counting   =     17974.22483518   -17204.48438884
  entropy T*S    EENTRO =        -0.06502305
  eigenvalues    EBANDS =     -2442.54692855
  atomic energy  EATOM  =     20516.95828776
  Solvation  Ediel_sol  =         0.00000000
  ---------------------------------------------------
  free energy    TOTEN  =      -411.61157177 eV

  energy without entropy =     -411.54654872  energy(sigma->0) =     -411.57906024


--------------------------------------------------------------------------------------------------------




----------------------------------------- Iteration    1(   4)  ---------------------------------------


     EDDAV:  cpu time   32.4511: real time   32.4595
       DOS:  cpu time    0.0030: real time    0.0033
    --------------------------------------------
      LOOP:  cpu time   32.4541: real time   32.4660

 eigenvalue-minimisations  : 11048
 total energy-change (2. order) :-0.1359332E+02  (-0.1320419E+02)
 number of electron     320.0000000 magnetization      48.0000000
 augmentation part      320.0000000 magnetization      48.0000000

 Free energy of the ion-electron system (eV)
  ---------------------------------------------------
  alpha Z        PSCENC =      1035.12072450
  Ewald energy   TEWEN  =     57877.22544267
  -Hartree energ DENC   =    -78547.87286670
  -exchange      EXHF   =         0.00000000
  -V(xc)+E(xc)   XCENC  =       379.82834526
  PAW double counting   =     17974.22483518   -17204.48438884
  entropy T*S    EENTRO =        -0.06715369
  eigenvalues    EBANDS =     -2456.13811498
  atomic energy  EATOM  =     20516.95828776
  Solvation  Ediel_sol  =         0.00000000
  ---------------------------------------------------
  free energy    TOTEN  =      -425.20488884 eV

  energy without entropy =     -425.13773515  energy(sigma->0) =     -425.17131200


--------------------------------------------------------------------------------------------------------




----------------------------------------- Iteration    1(   5)  ---------------------------------------


     EDDAV:  cpu time   32.5081: real time   32.5174
       DOS:  cpu time    0.0030: real time    0.0034
    CHARGE:  cpu time    0.9079: real time    0.9077
    MIXING:  cpu time    0.0040: real time    0.0047
    --------------------------------------------
      LOOP:  cpu time   33.4259: real time   33.4363

 eigenvalue-minimisations  : 11072
 total energy-change (2. order) :-0.3653060E+00  (-0.3619092E+00)
 number of electron     320.0000143 magnetization      43.9989333
 augmentation part       46.0502266 magnetization      34.0711137

 Broyden mixing:
  rms(total) = 0.16005E+02    rms(broyden)= 0.16004E+02
  rms(prec ) = 0.16153E+02
  weight for this iteration     100.00

 Free energy of the ion-electron system (eV)
  ---------------------------------------------------
  alpha Z        PSCENC =      1035.12072450
  Ewald energy   TEWEN  =     57877.22544267
  -Hartree energ DENC   =    -78547.87286670
  -exchange      EXHF   =         0.00000000
  -V(xc)+E(xc)   XCENC  =       379.82834526
  PAW double counting   =     17974.22483518   -17204.48438884
  entropy T*S    EENTRO =        -0.06727830
  eigenvalues    EBANDS =     -2456.50329635
  atomic energy  EATOM  =     20516.95828776
  Solvation  Ediel_sol  =         0.00000000
  ---------------------------------------------------
  free energy    TOTEN  =      -425.57019483 eV

  energy without entropy =     -425.50291652  energy(sigma->0) =     -425.53655568


--------------------------------------------------------------------------------------------------------




----------------------------------------- Iteration    1(   6)  ---------------------------------------


    POTLOK:  cpu time    0.2650: real time    0.2653
    SETDIJ:  cpu time    0.0240: real time    0.0234
    EDDIAG:  cpu time    4.5363: real time    4.5368
  RMM-DIIS:  cpu time   15.0167: real time   15.0226
    ORTHCH:  cpu time    0.8789: real time    0.8786
       DOS:  cpu time    0.0030: real time    0.0033
    CHARGE:  cpu time    0.8919: real time    0.8923
    MIXING:  cpu time    0.0050: real time    0.0048
    --------------------------------------------
      LOOP:  cpu time   21.6207: real time   21.6301

 eigenvalue-minimisations  :  8679
 total energy-change (2. order) : 0.8302484E+02  (-0.3656310E+02)
 number of electron     320.0000109 magnetization      39.2464847
 augmentation part       46.2324611 magnetization      29.7134841

 Broyden mixing:
  rms(total) = 0.63676E+01    rms(broyden)= 0.63665E+01
  rms(prec ) = 0.64530E+01
  weight for this iteration     100.00

 eigenvalues of (default mixing * dielectric matrix)
  average eigenvalue GAMMA=   1.1749
  1.1749

 Free energy of the ion-electron system (eV)
  ---------------------------------------------------
  alpha Z        PSCENC =      1035.12072450
  Ewald energy   TEWEN  =     57877.22544267
  -Hartree energ DENC   =    -78933.90360710
  -exchange      EXHF   =         0.00000000
  -V(xc)+E(xc)   XCENC  =       433.10641234
  PAW double counting   =     22707.77915356   -21973.62031566
  entropy T*S    EENTRO =        -0.03245476
  eigenvalues    EBANDS =     -2005.17899971
  atomic energy  EATOM  =     20516.95828776
  Solvation  Ediel_sol  =         0.00000000
  ---------------------------------------------------
  free energy    TOTEN  =      -342.54535639 eV

  energy without entropy =     -342.51290163  energy(sigma->0) =     -342.52912901


--------------------------------------------------------------------------------------------------------




----------------------------------------- Iteration    1(   7)  ---------------------------------------


    POTLOK:  cpu time    0.2630: real time    0.2638
    SETDIJ:  cpu time    0.0240: real time    0.0233
    EDDIAG:  cpu time    4.5393: real time    4.5404
  RMM-DIIS:  cpu time   14.9577: real time   14.9610
    ORTHCH:  cpu time    0.8779: real time    0.8776
       DOS:  cpu time    0.0040: real time    0.0036
    CHARGE:  cpu time    0.8749: real time    0.8752
    MIXING:  cpu time    0.0050: real time    0.0049
    --------------------------------------------
      LOOP:  cpu time   21.5457: real time   21.5531

 eigenvalue-minimisations  :  8650
 total energy-change (2. order) :-0.1972156E+02  (-0.6020287E+01)
 number of electron     320.0000124 magnetization      36.0548104
 augmentation part       46.5392356 magnetization      31.5176082

 Broyden mixing:
  rms(total) = 0.70141E+01    rms(broyden)= 0.70133E+01
  rms(prec ) = 0.79173E+01
  weight for this iteration     100.00

 eigenvalues of (default mixing * dielectric matrix)
  average eigenvalue GAMMA=   1.1118
  1.7035  0.5202

 Free energy of the ion-electron system (eV)
  ---------------------------------------------------
  alpha Z        PSCENC =      1035.12072450
  Ewald energy   TEWEN  =     57877.22544267
  -Hartree energ DENC   =    -78727.66257088
  -exchange      EXHF   =         0.00000000
  -V(xc)+E(xc)   XCENC  =       419.48888943
  PAW double counting   =     26094.70459708   -25365.83500199
  entropy T*S    EENTRO =        -0.02392268
  eigenvalues    EBANDS =     -2212.24336177
  atomic energy  EATOM  =     20516.95828776
  Solvation  Ediel_sol  =         0.00000000
  ---------------------------------------------------
  free energy    TOTEN  =      -362.26691587 eV

  energy without entropy =     -362.24299319  energy(sigma->0) =     -362.25495453


--------------------------------------------------------------------------------------------------------




----------------------------------------- Iteration    1(   8)  ---------------------------------------


    POTLOK:  cpu time    0.2700: real time    0.2705
    SETDIJ:  cpu time    0.0240: real time    0.0232
    EDDIAG:  cpu time    4.5303: real time    4.5310
  RMM-DIIS:  cpu time   14.9857: real time   14.9895
    ORTHCH:  cpu time    0.8769: real time    0.8769
       DOS:  cpu time    0.0040: real time    0.0033
    CHARGE:  cpu time    0.8869: real time    0.8870
    MIXING:  cpu time    0.0050: real time    0.0050
    --------------------------------------------
      LOOP:  cpu time   21.5837: real time   21.5901

 eigenvalue-minimisations  :  8661
 total energy-change (2. order) :-0.1523243E+02  (-0.5858991E+01)
 number of electron     320.0000116 magnetization      32.4724518
 augmentation part       46.0149437 magnetization      24.4095091

 Broyden mixing:
  rms(total) = 0.82810E+01    rms(broyden)= 0.82805E+01
  rms(prec ) = 0.10044E+02
  weight for this iteration     100.00

 eigenvalues of (default mixing * dielectric matrix)
  average eigenvalue GAMMA=   0.9584
  2.1096  0.6029  0.1628

 Free energy of the ion-electron system (eV)
  ---------------------------------------------------
  alpha Z        PSCENC =      1035.12072450
  Ewald energy   TEWEN  =     57877.22544267
  -Hartree energ DENC   =    -79058.64289675
  -exchange      EXHF   =         0.00000000
  -V(xc)+E(xc)   XCENC  =       428.17885349
  PAW double counting   =     27969.66377722   -27248.15873856
  entropy T*S    EENTRO =        -0.02704649
  eigenvalues    EBANDS =     -1897.81775174
  atomic energy  EATOM  =     20516.95828776
  Solvation  Ediel_sol  =         0.00000000
  ---------------------------------------------------
  free energy    TOTEN  =      -377.49934790 eV

  energy without entropy =     -377.47230141  energy(sigma->0) =     -377.48582465


--------------------------------------------------------------------------------------------------------




----------------------------------------- Iteration    1(   9)  ---------------------------------------


    POTLOK:  cpu time    0.2640: real time    0.2637
    SETDIJ:  cpu time    0.0230: real time    0.0232
    EDDIAG:  cpu time    4.5373: real time    4.5389
  RMM-DIIS:  cpu time   14.9507: real time   14.9545
    ORTHCH:  cpu time    0.8769: real time    0.8772
       DOS:  cpu time    0.0030: real time    0.0032
    CHARGE:  cpu time    0.8819: real time    0.8819
    MIXING:  cpu time    0.0060: real time    0.0052
    --------------------------------------------
      LOOP:  cpu time   21.5427: real time   21.5509

 eigenvalue-minimisations  :  8643
 total energy-change (2. order) : 0.2630168E+02  (-0.1677911E+01)
 number of electron     320.0000114 magnetization      30.2612717
 augmentation part       46.2853992 magnetization      23.6051598

 Broyden mixing:
  rms(total) = 0.42122E+01    rms(broyden)= 0.42117E+01
  rms(prec ) = 0.49637E+01
  weight for this iteration     100.00

 eigenvalues of (default mixing * dielectric matrix)
  average eigenvalue GAMMA=   0.8981
  2.4119  0.6690  0.2848  0.2266

 Free energy of the ion-electron system (eV)
  ---------------------------------------------------
  alpha Z        PSCENC =      1035.12072450
  Ewald energy   TEWEN  =     57877.22544267
  -Hartree energ DENC   =    -78866.37510957
  -exchange      EXHF   =         0.00000000
  -V(xc)+E(xc)   XCENC  =       434.31727503
  PAW double counting   =     30098.28078924   -29383.65868778
  entropy T*S    EENTRO =        -0.01541206
  eigenvalues    EBANDS =     -2063.05097476
  atomic energy  EATOM  =     20516.95828776
  Solvation  Ediel_sol  =         0.00000000
  ---------------------------------------------------
  free energy    TOTEN  =      -351.19766497 eV

  energy without entropy =     -351.18225291  energy(sigma->0) =     -351.18995894


--------------------------------------------------------------------------------------------------------




----------------------------------------- Iteration    1(  10)  ---------------------------------------


    POTLOK:  cpu time    0.2640: real time    0.2634
    SETDIJ:  cpu time    0.0230: real time    0.0233
    EDDIAG:  cpu time    4.5323: real time    4.5336
  RMM-DIIS:  cpu time   14.9377: real time   14.9413
    ORTHCH:  cpu time    0.8769: real time    0.8775
       DOS:  cpu time    0.0030: real time    0.0034
    CHARGE:  cpu time    0.8949: real time    0.8949
    MIXING:  cpu time    0.0050: real time    0.0053
    --------------------------------------------
      LOOP:  cpu time   21.5377: real time   21.5457

 eigenvalue-minimisations  :  8640
 total energy-change (2. order) : 0.2042428E+02  (-0.1977511E+01)
 number of electron     320.0000114 magnetization      28.9449986
 augmentation part       46.1976808 magnetization      19.5559991

 Broyden mixing:
  rms(total) = 0.25975E+01    rms(broyden)= 0.25968E+01
  rms(prec ) = 0.36749E+01
  weight for this iteration     100.00

 eigenvalues of (default mixing * dielectric matrix)
  average eigenvalue GAMMA=   0.8007
  2.3524  0.7046  0.3884  0.3884  0.1700

 Free energy of the ion-electron system (eV)
  ---------------------------------------------------
  alpha Z        PSCENC =      1035.12072450
  Ewald energy   TEWEN  =     57877.22544267
  -Hartree energ DENC   =    -78963.65281124
  -exchange      EXHF   =         0.00000000
  -V(xc)+E(xc)   XCENC  =       434.86775417
  PAW double counting   =     30906.56236169   -30195.16386336
  entropy T*S    EENTRO =        -0.05508358
  eigenvalues    EBANDS =     -1942.63619809
  atomic energy  EATOM  =     20516.95828776
  Solvation  Ediel_sol  =         0.00000000
  ---------------------------------------------------
  free energy    TOTEN  =      -330.77338547 eV

  energy without entropy =     -330.71830189  energy(sigma->0) =     -330.74584368


--------------------------------------------------------------------------------------------------------




----------------------------------------- Iteration    1(  11)  ---------------------------------------


    POTLOK:  cpu time    0.2640: real time    0.2640
    SETDIJ:  cpu time    0.0230: real time    0.0232
    EDDIAG:  cpu time    4.4893: real time    4.4901
  RMM-DIIS:  cpu time   15.0247: real time   15.0288
    ORTHCH:  cpu time    0.8789: real time    0.8799
       DOS:  cpu time    0.0030: real time    0.0034
    CHARGE:  cpu time    0.8849: real time    0.8861
    MIXING:  cpu time    0.0050: real time    0.0054
    --------------------------------------------
      LOOP:  cpu time   21.5757: real time   21.5840

 eigenvalue-minimisations  :  8641
 total energy-change (2. order) :-0.6484150E+01  (-0.7728931E+00)
 number of electron     320.0000116 magnetization      27.5697979
 augmentation part       46.3531230 magnetization      21.4907352

 Broyden mixing:
  rms(total) = 0.17489E+01    rms(broyden)= 0.17481E+01
  rms(prec ) = 0.18574E+01
  weight for this iteration     100.00

 eigenvalues of (default mixing * dielectric matrix)
  average eigenvalue GAMMA=   0.7668
  2.4260  0.8281  0.4380  0.4380  0.3083  0.1623

 Free energy of the ion-electron system (eV)
  ---------------------------------------------------
  alpha Z        PSCENC =      1035.12072450
  Ewald energy   TEWEN  =     57877.22544267
  -Hartree energ DENC   =    -78855.10537368
  -exchange      EXHF   =         0.00000000
  -V(xc)+E(xc)   XCENC  =       425.76475942
  PAW double counting   =     30715.28703721   -30003.38237675
  entropy T*S    EENTRO =        -0.04419991
  eigenvalues    EBANDS =     -2049.08183652
  atomic energy  EATOM  =     20516.95828776
  Solvation  Ediel_sol  =         0.00000000
  ---------------------------------------------------
  free energy    TOTEN  =      -337.25753530 eV

  energy without entropy =     -337.21333539  energy(sigma->0) =     -337.23543535


--------------------------------------------------------------------------------------------------------




----------------------------------------- Iteration    1(  12)  ---------------------------------------


    POTLOK:  cpu time    0.2640: real time    0.2640
    SETDIJ:  cpu time    0.0230: real time    0.0232
    EDDIAG:  cpu time    4.4963: real time    4.4974
  RMM-DIIS:  cpu time   15.0337: real time   15.0383
    ORTHCH:  cpu time    0.8789: real time    0.8784
       DOS:  cpu time    0.0030: real time    0.0033
    CHARGE:  cpu time    0.8879: real time    0.8877
    MIXING:  cpu time    0.0050: real time    0.0056
    --------------------------------------------
      LOOP:  cpu time   21.5937: real time   21.6010

 eigenvalue-minimisations  :  8653
 total energy-change (2. order) :-0.3484791E+01  (-0.1856610E+00)
 number of electron     320.0000117 magnetization      26.9727552
 augmentation part       46.2028753 magnetization      20.9670409

 Broyden mixing:
  rms(total) = 0.13930E+01    rms(broyden)= 0.13929E+01
  rms(prec ) = 0.14476E+01
  weight for this iteration     100.00

 eigenvalues of (default mixing * dielectric matrix)
  average eigenvalue GAMMA=   0.7249
  2.4108  0.8146  0.4844  0.4844  0.4213  0.2948  0.1640

 Free energy of the ion-electron system (eV)
  ---------------------------------------------------
  alpha Z        PSCENC =      1035.12072450
  Ewald energy   TEWEN  =     57877.22544267
  -Hartree energ DENC   =    -78873.71361100
  -exchange      EXHF   =         0.00000000
  -V(xc)+E(xc)   XCENC  =       422.44048033
  PAW double counting   =     30800.02066891   -30088.26133252
  entropy T*S    EENTRO =        -0.03700938
  eigenvalues    EBANDS =     -2030.49597774
  atomic energy  EATOM  =     20516.95828776
  Solvation  Ediel_sol  =         0.00000000
  ---------------------------------------------------
  free energy    TOTEN  =      -340.74232647 eV

  energy without entropy =     -340.70531709  energy(sigma->0) =     -340.72382178


--------------------------------------------------------------------------------------------------------




----------------------------------------- Iteration    1(  13)  ---------------------------------------


    POTLOK:  cpu time    0.2640: real time    0.2641
    SETDIJ:  cpu time    0.0240: real time    0.0232
    EDDIAG:  cpu time    4.4853: real time    4.4859
  RMM-DIIS:  cpu time   15.0507: real time   15.0550
    ORTHCH:  cpu time    0.8809: real time    0.8811
       DOS:  cpu time    0.0030: real time    0.0033
    CHARGE:  cpu time    0.8859: real time    0.8875
    MIXING:  cpu time    0.0060: real time    0.0057
    --------------------------------------------
      LOOP:  cpu time   21.5997: real time   21.6091

 eigenvalue-minimisations  :  8680
 total energy-change (2. order) :-0.2332578E+01  (-0.4883674E-01)
 number of electron     320.0000117 magnetization      26.4521174
 augmentation part       46.1845948 magnetization      20.2698949

 Broyden mixing:
  rms(total) = 0.13826E+01    rms(broyden)= 0.13825E+01
  rms(prec ) = 0.16201E+01
  weight for this iteration     100.00

 eigenvalues of (default mixing * dielectric matrix)
  average eigenvalue GAMMA=   0.6597
  2.4018  0.8022  0.5239  0.5239  0.4165  0.3007  0.1680  0.1404

 Free energy of the ion-electron system (eV)
  ---------------------------------------------------
  alpha Z        PSCENC =      1035.12072450
  Ewald energy   TEWEN  =     57877.22544267
  -Hartree energ DENC   =    -78872.00899565
  -exchange      EXHF   =         0.00000000
  -V(xc)+E(xc)   XCENC  =       421.01099922
  PAW double counting   =     30725.37999136   -30013.37194665
  entropy T*S    EENTRO =        -0.03619546
  eigenvalues    EBANDS =     -2033.35321219
  atomic energy  EATOM  =     20516.95828776
  Solvation  Ediel_sol  =         0.00000000
  ---------------------------------------------------
  free energy    TOTEN  =      -343.07490444 eV

  energy without entropy =     -343.03870898  energy(sigma->0) =     -343.05680671


--------------------------------------------------------------------------------------------------------




----------------------------------------- Iteration    1(  14)  ---------------------------------------


    POTLOK:  cpu time    0.2630: real time    0.2636
    SETDIJ:  cpu time    0.0230: real time    0.0232
    EDDIAG:  cpu time    4.4873: real time    4.4888
  RMM-DIIS:  cpu time   14.9597: real time   14.9646
    ORTHCH:  cpu time    0.8799: real time    0.8801
       DOS:  cpu time    0.0040: real time    0.0032
    CHARGE:  cpu time    0.8869: real time    0.8873
    MIXING:  cpu time    0.0060: real time    0.0059
    --------------------------------------------
      LOOP:  cpu time   21.5117: real time   21.5213

 eigenvalue-minimisations  :  8643
 total energy-change (2. order) :-0.1939136E+01  (-0.3584197E-01)
 number of electron     320.0000117 magnetization      23.5880770
 augmentation part       46.1702733 magnetization      17.3760187

 Broyden mixing:
  rms(total) = 0.13202E+01    rms(broyden)= 0.13201E+01
  rms(prec ) = 0.15687E+01
  weight for this iteration     100.00

 eigenvalues of (default mixing * dielectric matrix)
  average eigenvalue GAMMA=   0.6685
  2.3704  0.7627  0.7627  0.7510  0.4179  0.4179  0.2910  0.1629  0.0800

 Free energy of the ion-electron system (eV)
  ---------------------------------------------------
  alpha Z        PSCENC =      1035.12072450
  Ewald energy   TEWEN  =     57877.22544267
  -Hartree energ DENC   =    -78871.48464563
  -exchange      EXHF   =         0.00000000
  -V(xc)+E(xc)   XCENC  =       419.78104215
  PAW double counting   =     30661.15815987   -29948.95484051
  entropy T*S    EENTRO =        -0.03765308
  eigenvalues    EBANDS =     -2034.78055838
  atomic energy  EATOM  =     20516.95828776
  Solvation  Ediel_sol  =         0.00000000
  ---------------------------------------------------
  free energy    TOTEN  =      -345.01404065 eV

  energy without entropy =     -344.97638757  energy(sigma->0) =     -344.99521411


--------------------------------------------------------------------------------------------------------




----------------------------------------- Iteration    1(  15)  ---------------------------------------


    POTLOK:  cpu time    0.2630: real time    0.2637
    SETDIJ:  cpu time    0.0230: real time    0.0232
    EDDIAG:  cpu time    4.4843: real time    4.4851
  RMM-DIIS:  cpu time   15.0067: real time   15.0110
    ORTHCH:  cpu time    0.8789: real time    0.8796
       DOS:  cpu time    0.0040: real time    0.0034
    CHARGE:  cpu time    0.8839: real time    0.8848
    MIXING:  cpu time    0.0060: real time    0.0061
    --------------------------------------------
      LOOP:  cpu time   21.5497: real time   21.5599

 eigenvalue-minimisations  :  8641
 total energy-change (2. order) :-0.1008345E+02  (-0.5341731E+00)
 number of electron     320.0000117 magnetization      18.9506861
 augmentation part       46.0965793 magnetization      12.7170034

 Broyden mixing:
  rms(total) = 0.96554E+00    rms(broyden)= 0.96547E+00
  rms(prec ) = 0.10452E+01
  weight for this iteration     100.00

 eigenvalues of (default mixing * dielectric matrix)
  average eigenvalue GAMMA=   0.7739
  2.4078  1.3271  1.3271  0.7973  0.4980  0.4980  0.3545  0.2868  0.1632  0.0787

 Free energy of the ion-electron system (eV)
  ---------------------------------------------------
  alpha Z        PSCENC =      1035.12072450
  Ewald energy   TEWEN  =     57877.22544267
  -Hartree energ DENC   =    -78878.45205005
  -exchange      EXHF   =         0.00000000
  -V(xc)+E(xc)   XCENC  =       413.74956050
  PAW double counting   =     30392.23091846   -29679.32468383
  entropy T*S    EENTRO =        -0.03458838
  eigenvalues    EBANDS =     -2032.57110275
  atomic energy  EATOM  =     20516.95828776
  Solvation  Ediel_sol  =         0.00000000
  ---------------------------------------------------
  free energy    TOTEN  =      -355.09749112 eV

  energy without entropy =     -355.06290273  energy(sigma->0) =     -355.08019692


--------------------------------------------------------------------------------------------------------




----------------------------------------- Iteration    1(  16)  ---------------------------------------


    POTLOK:  cpu time    0.2640: real time    0.2638
    SETDIJ:  cpu time    0.0230: real time    0.0231
    EDDIAG:  cpu time    4.4883: real time    4.4882
  RMM-DIIS:  cpu time   14.9467: real time   14.9500
    ORTHCH:  cpu time    0.8779: real time    0.8783
       DOS:  cpu time    0.0040: real time    0.0037
    CHARGE:  cpu time    0.8849: real time    0.8857
    MIXING:  cpu time    0.0060: real time    0.0063
    --------------------------------------------
      LOOP:  cpu time   21.4947: real time   21.5022

 eigenvalue-minimisations  :  8640
 total energy-change (2. order) :-0.1107054E+02  (-0.1095157E+01)
 number of electron     320.0000118 magnetization      15.8180638
 augmentation part       45.9953223 magnetization       9.8233873

 Broyden mixing:
  rms(total) = 0.77262E+00    rms(broyden)= 0.77247E+00
  rms(prec ) = 0.83393E+00
  weight for this iteration     100.00

 eigenvalues of (default mixing * dielectric matrix)
  average eigenvalue GAMMA=   0.7653
  2.3154  1.8145  0.9360  0.9360  0.5129  0.5129  0.5507  0.2988  0.2988  0.1632
  0.0788

 Free energy of the ion-electron system (eV)
  ---------------------------------------------------
  alpha Z        PSCENC =      1035.12072450
  Ewald energy   TEWEN  =     57877.22544267
  -Hartree energ DENC   =    -78893.18895257
  -exchange      EXHF   =         0.00000000
  -V(xc)+E(xc)   XCENC  =       407.92538083
  PAW double counting   =     30271.81017968   -29558.74489943
  entropy T*S    EENTRO =        -0.03311098
  eigenvalues    EBANDS =     -2023.24107877
  atomic energy  EATOM  =     20516.95828776
  Solvation  Ediel_sol  =         0.00000000
  ---------------------------------------------------
  free energy    TOTEN  =      -366.16802631 eV

  energy without entropy =     -366.13491533  energy(sigma->0) =     -366.15147082


--------------------------------------------------------------------------------------------------------




----------------------------------------- Iteration    1(  17)  ---------------------------------------


    POTLOK:  cpu time    0.2630: real time    0.2637
    SETDIJ:  cpu time    0.0240: real time    0.0232
    EDDIAG:  cpu time    4.4903: real time    4.4915
  RMM-DIIS:  cpu time   15.0047: real time   15.0071
    ORTHCH:  cpu time    0.8789: real time    0.8787
       DOS:  cpu time    0.0040: real time    0.0033
    CHARGE:  cpu time    0.8839: real time    0.8847
    MIXING:  cpu time    0.0070: real time    0.0064
    --------------------------------------------
      LOOP:  cpu time   21.5557: real time   21.5618

 eigenvalue-minimisations  :  8692
 total energy-change (2. order) :-0.3571710E+01  (-0.4164226E+00)
 number of electron     320.0000118 magnetization      14.8574064
 augmentation part       45.9673734 magnetization       9.5768562

 Broyden mixing:
  rms(total) = 0.96685E+00    rms(broyden)= 0.96680E+00
  rms(prec ) = 0.11460E+01
  weight for this iteration     100.00

 eigenvalues of (default mixing * dielectric matrix)
  average eigenvalue GAMMA=   0.7370
  2.1908  2.1908  0.8378  0.8378  0.6309  0.5317  0.5317  0.3136  0.3136  0.1632
  0.2228  0.0788

 Free energy of the ion-electron system (eV)
  ---------------------------------------------------
  alpha Z        PSCENC =      1035.12072450
  Ewald energy   TEWEN  =     57877.22544267
  -Hartree energ DENC   =    -78886.54086302
  -exchange      EXHF   =         0.00000000
  -V(xc)+E(xc)   XCENC  =       405.63842796
  PAW double counting   =     30093.82845048   -29380.30480917
  entropy T*S    EENTRO =        -0.04932760
  eigenvalues    EBANDS =     -2031.61606986
  atomic energy  EATOM  =     20516.95828776
  Solvation  Ediel_sol  =         0.00000000
  ---------------------------------------------------
  free energy    TOTEN  =      -369.73973626 eV

  energy without entropy =     -369.69040867  energy(sigma->0) =     -369.71507247


--------------------------------------------------------------------------------------------------------




----------------------------------------- Iteration    1(  18)  ---------------------------------------


    POTLOK:  cpu time    0.2650: real time    0.2642
    SETDIJ:  cpu time    0.0230: real time    0.0231
    EDDIAG:  cpu time    4.4893: real time    4.4901
  RMM-DIIS:  cpu time   15.0817: real time   15.0839
    ORTHCH:  cpu time    0.8829: real time    0.8827
       DOS:  cpu time    0.0030: real time    0.0033
    CHARGE:  cpu time    0.8849: real time    0.8848
    MIXING:  cpu time    0.0060: real time    0.0066
    --------------------------------------------
      LOOP:  cpu time   21.6357: real time   21.6418

 eigenvalue-minimisations  :  8750
 total energy-change (2. order) :-0.6236641E+00  (-0.9378261E-01)
 number of electron     320.0000118 magnetization      13.8018598
 augmentation part       45.9356981 magnetization       8.8349514

 Broyden mixing:
  rms(total) = 0.77053E+00    rms(broyden)= 0.77049E+00
  rms(prec ) = 0.82558E+00
  weight for this iteration     100.00

 eigenvalues of (default mixing * dielectric matrix)
  average eigenvalue GAMMA=   0.7628
  2.3785  2.3785  0.9052  0.9052  0.6861  0.6861  0.4955  0.4955  0.3140  0.2820
  0.1632  0.0787  0.1481

 Free energy of the ion-electron system (eV)
  ---------------------------------------------------
  alpha Z        PSCENC =      1035.12072450
  Ewald energy   TEWEN  =     57877.22544267
  -Hartree energ DENC   =    -78883.87316035
  -exchange      EXHF   =         0.00000000
  -V(xc)+E(xc)   XCENC  =       405.07220308
  PAW double counting   =     30054.63238348   -29341.00781119
  entropy T*S    EENTRO =        -0.04003756
  eigenvalues    EBANDS =     -2034.45143280
  atomic energy  EATOM  =     20516.95828776
  Solvation  Ediel_sol  =         0.00000000
  ---------------------------------------------------
  free energy    TOTEN  =      -370.36340040 eV

  energy without entropy =     -370.32336284  energy(sigma->0) =     -370.34338162


--------------------------------------------------------------------------------------------------------




----------------------------------------- Iteration    1(  19)  ---------------------------------------


    POTLOK:  cpu time    0.2640: real time    0.2641
    SETDIJ:  cpu time    0.0240: real time    0.0232
    EDDIAG:  cpu time    4.4893: real time    4.4905
  RMM-DIIS:  cpu time   14.9287: real time   14.9327
    ORTHCH:  cpu time    0.8789: real time    0.8787
       DOS:  cpu time    0.0030: real time    0.0032
    CHARGE:  cpu time    0.8809: real time    0.8814
    MIXING:  cpu time    0.0070: real time    0.0069
    --------------------------------------------
      LOOP:  cpu time   21.4777: real time   21.4838

 eigenvalue-minimisations  :  8645
 total energy-change (2. order) :-0.8323634E+00  (-0.9416257E-01)
 number of electron     320.0000118 magnetization      12.0100358
 augmentation part       45.9157020 magnetization       7.4013302

 Broyden mixing:
  rms(total) = 0.64873E+00    rms(broyden)= 0.64870E+00
  rms(prec ) = 0.67595E+00
  weight for this iteration     100.00

 eigenvalues of (default mixing * dielectric matrix)
  average eigenvalue GAMMA=   0.8201
  2.6498  2.6498  1.1136  1.1136  0.7459  0.7459  0.5090  0.5090  0.4682  0.3025
  0.2876  0.1632  0.0787  0.1445

 Free energy of the ion-electron system (eV)
  ---------------------------------------------------
  alpha Z        PSCENC =      1035.12072450
  Ewald energy   TEWEN  =     57877.22544267
  -Hartree energ DENC   =    -78880.07598590
  -exchange      EXHF   =         0.00000000
  -V(xc)+E(xc)   XCENC  =       404.42576852
  PAW double counting   =     30029.66890725   -29315.97561877
  entropy T*S    EENTRO =        -0.03737115
  eigenvalues    EBANDS =     -2038.50591872
  atomic energy  EATOM  =     20516.95828776
  Solvation  Ediel_sol  =         0.00000000
  ---------------------------------------------------
  free energy    TOTEN  =      -371.19576384 eV

  energy without entropy =     -371.15839269  energy(sigma->0) =     -371.17707826


--------------------------------------------------------------------------------------------------------




----------------------------------------- Iteration    1(  20)  ---------------------------------------


    POTLOK:  cpu time    0.2640: real time    0.2637
    SETDIJ:  cpu time    0.0230: real time    0.0232
    EDDIAG:  cpu time    4.4863: real time    4.4873
  RMM-DIIS:  cpu time   14.9117: real time   14.9167
    ORTHCH:  cpu time    0.8789: real time    0.8786
       DOS:  cpu time    0.0030: real time    0.0034
    CHARGE:  cpu time    0.8799: real time    0.8812
    MIXING:  cpu time    0.0070: real time    0.0071
    --------------------------------------------
      LOOP:  cpu time   21.4567: real time   21.4645

 eigenvalue-minimisations  :  8643
 total energy-change (2. order) :-0.3771294E+00  (-0.2746544E-01)
 number of electron     320.0000118 magnetization       9.3370222
 augmentation part       45.9437934 magnetization       4.7999488

 Broyden mixing:
  rms(total) = 0.61292E+00    rms(broyden)= 0.61289E+00
  rms(prec ) = 0.67574E+00
  weight for this iteration     100.00

 eigenvalues of (default mixing * dielectric matrix)
  average eigenvalue GAMMA=   0.8867
  3.7141  2.5653  1.2747  1.2747  0.7882  0.6395  0.6395  0.5187  0.5187  0.3871
  0.3081  0.2844  0.1632  0.0787  0.1460

 Free energy of the ion-electron system (eV)
  ---------------------------------------------------
  alpha Z        PSCENC =      1035.12072450
  Ewald energy   TEWEN  =     57877.22544267
  -Hartree energ DENC   =    -78867.11800425
  -exchange      EXHF   =         0.00000000
  -V(xc)+E(xc)   XCENC  =       403.65430248
  PAW double counting   =     29961.83501019   -29247.96427688
  entropy T*S    EENTRO =        -0.03949390
  eigenvalues    EBANDS =     -2051.24488581
  atomic energy  EATOM  =     20516.95828776
  Solvation  Ediel_sol  =         0.00000000
  ---------------------------------------------------
  free energy    TOTEN  =      -371.57289322 eV

  energy without entropy =     -371.53339933  energy(sigma->0) =     -371.55314628


--------------------------------------------------------------------------------------------------------




----------------------------------------- Iteration    1(  21)  ---------------------------------------


    POTLOK:  cpu time    0.2640: real time    0.2634
    SETDIJ:  cpu time    0.0230: real time    0.0231
    EDDIAG:  cpu time    4.4843: real time    4.4859
  RMM-DIIS:  cpu time   14.9407: real time   14.9444
    ORTHCH:  cpu time    0.8769: real time    0.8767
       DOS:  cpu time    0.0040: real time    0.0037
    CHARGE:  cpu time    0.8809: real time    0.8823
    MIXING:  cpu time    0.0080: real time    0.0073
    --------------------------------------------
      LOOP:  cpu time   21.4817: real time   21.4907

 eigenvalue-minimisations  :  8640
 total energy-change (2. order) :-0.1731639E+00  (-0.3317704E-01)
 number of electron     320.0000118 magnetization       8.0708468
 augmentation part       45.9898671 magnetization       3.8214468

 Broyden mixing:
  rms(total) = 0.55381E+00    rms(broyden)= 0.55377E+00
  rms(prec ) = 0.61112E+00
  weight for this iteration     100.00

 eigenvalues of (default mixing * dielectric matrix)
  average eigenvalue GAMMA=   0.9291
  4.6577  2.4602  1.2916  1.2916  0.8167  0.8167  0.8204  0.5011  0.5011  0.4835
  0.3041  0.2858  0.2483  0.1632  0.0787  0.1456

 Free energy of the ion-electron system (eV)
  ---------------------------------------------------
  alpha Z        PSCENC =      1035.12072450
  Ewald energy   TEWEN  =     57877.22544267
  -Hartree energ DENC   =    -78849.50564220
  -exchange      EXHF   =         0.00000000
  -V(xc)+E(xc)   XCENC  =       402.89497456
  PAW double counting   =     29880.93436875   -29166.85486964
  entropy T*S    EENTRO =        -0.04108146
  eigenvalues    EBANDS =     -2068.47826210
  atomic energy  EATOM  =     20516.95828776
  Solvation  Ediel_sol  =         0.00000000
  ---------------------------------------------------
  free energy    TOTEN  =      -371.74605715 eV

  energy without entropy =     -371.70497569  energy(sigma->0) =     -371.72551642


--------------------------------------------------------------------------------------------------------




----------------------------------------- Iteration    1(  22)  ---------------------------------------


    POTLOK:  cpu time    0.2640: real time    0.2640
    SETDIJ:  cpu time    0.0230: real time    0.0230
    EDDIAG:  cpu time    4.4813: real time    4.4819
  RMM-DIIS:  cpu time   14.9507: real time   14.9548
    ORTHCH:  cpu time    0.8769: real time    0.8767
       DOS:  cpu time    0.0040: real time    0.0037
    CHARGE:  cpu time    0.8799: real time    0.8800
    MIXING:  cpu time    0.0080: real time    0.0079
    --------------------------------------------
      LOOP:  cpu time   21.4887: real time   21.4951

 eigenvalue-minimisations  :  8640
 total energy-change (2. order) :-0.7773037E-01  (-0.1699237E-01)
 number of electron     320.0000118 magnetization       7.5561562
 augmentation part       45.9925561 magnetization       4.0834258

 Broyden mixing:
  rms(total) = 0.44768E+00    rms(broyden)= 0.44764E+00
  rms(prec ) = 0.48118E+00
  weight for this iteration     100.00

 eigenvalues of (default mixing * dielectric matrix)
  average eigenvalue GAMMA=   0.9007
  4.7544  2.4126  1.3038  1.3038  0.8895  0.8895  0.7788  0.5009  0.5009  0.5229
  0.2946  0.2946  0.2838  0.0787  0.1632  0.1457  0.1937

 Free energy of the ion-electron system (eV)
  ---------------------------------------------------
  alpha Z        PSCENC =      1035.12072450
  Ewald energy   TEWEN  =     57877.22544267
  -Hartree energ DENC   =    -78847.32287708
  -exchange      EXHF   =         0.00000000
  -V(xc)+E(xc)   XCENC  =       402.74825319
  PAW double counting   =     29918.64519805   -29204.71146218
  entropy T*S    EENTRO =        -0.03877789
  eigenvalues    EBANDS =     -2070.44857655
  atomic energy  EATOM  =     20516.95828776
  Solvation  Ediel_sol  =         0.00000000
  ---------------------------------------------------
  free energy    TOTEN  =      -371.82378752 eV

  energy without entropy =     -371.78500963  energy(sigma->0) =     -371.80439857


--------------------------------------------------------------------------------------------------------




----------------------------------------- Iteration    1(  23)  ---------------------------------------


    POTLOK:  cpu time    0.2630: real time    0.2634
    SETDIJ:  cpu time    0.0230: real time    0.0232
    EDDIAG:  cpu time    4.4843: real time    4.4854
  RMM-DIIS:  cpu time   14.9567: real time   14.9612
    ORTHCH:  cpu time    0.8759: real time    0.8766
       DOS:  cpu time    0.0030: real time    0.0034
    CHARGE:  cpu time    0.8809: real time    0.8814
    MIXING:  cpu time    0.0080: real time    0.0078
    --------------------------------------------
      LOOP:  cpu time   21.4967: real time   21.5056

 eigenvalue-minimisations  :  8649
 total energy-change (2. order) :-0.5208177E-02  (-0.5911127E-02)
 number of electron     320.0000118 magnetization       6.8757675
 augmentation part       45.9912833 magnetization       3.6780868

 Broyden mixing:
  rms(total) = 0.32753E+00    rms(broyden)= 0.32751E+00
  rms(prec ) = 0.34921E+00
  weight for this iteration     100.00

 eigenvalues of (default mixing * dielectric matrix)
  average eigenvalue GAMMA=   0.8698
  4.8204  2.3904  1.3108  1.3108  0.9055  0.9055  0.6979  0.5742  0.4976  0.4976
  0.2915  0.2883  0.2723  0.2723  0.1632  0.2334  0.0787  0.1456

 Free energy of the ion-electron system (eV)
  ---------------------------------------------------
  alpha Z        PSCENC =      1035.12072450
  Ewald energy   TEWEN  =     57877.22544267
  -Hartree energ DENC   =    -78846.41072996
  -exchange      EXHF   =         0.00000000
  -V(xc)+E(xc)   XCENC  =       402.70241801
  PAW double counting   =     29945.87556843   -29232.04301805
  entropy T*S    EENTRO =        -0.03689706
  eigenvalues    EBANDS =     -2071.22079200
  atomic energy  EATOM  =     20516.95828776
  Solvation  Ediel_sol  =         0.00000000
  ---------------------------------------------------
  free energy    TOTEN  =      -371.82899569 eV

  energy without entropy =     -371.79209863  energy(sigma->0) =     -371.81054716


--------------------------------------------------------------------------------------------------------




----------------------------------------- Iteration    1(  24)  ---------------------------------------


    POTLOK:  cpu time    0.2640: real time    0.2638
    SETDIJ:  cpu time    0.0230: real time    0.0231
    EDDIAG:  cpu time    4.4873: real time    4.4875
  RMM-DIIS:  cpu time   14.9697: real time   14.9762
    ORTHCH:  cpu time    0.8759: real time    0.8759
       DOS:  cpu time    0.0030: real time    0.0035
    CHARGE:  cpu time    0.8799: real time    0.8794
    MIXING:  cpu time    0.0080: real time    0.0081
    --------------------------------------------
      LOOP:  cpu time   21.5107: real time   21.5208

 eigenvalue-minimisations  :  8652
 total energy-change (2. order) :-0.7150656E-01  (-0.2011444E-02)
 number of electron     320.0000118 magnetization       5.6507454
 augmentation part       45.9943987 magnetization       2.6797227

 Broyden mixing:
  rms(total) = 0.28516E+00    rms(broyden)= 0.28516E+00
  rms(prec ) = 0.30375E+00
  weight for this iteration     100.00

 eigenvalues of (default mixing * dielectric matrix)
  average eigenvalue GAMMA=   0.9726
  6.0009  2.3386  1.3660  1.3660  1.0675  1.0675  0.8228  0.8228  0.7135  0.5051
  0.5051  0.4679  0.3057  0.2857  0.2648  0.0787  0.1632  0.1456  0.1916

 Free energy of the ion-electron system (eV)
  ---------------------------------------------------
  alpha Z        PSCENC =      1035.12072450
  Ewald energy   TEWEN  =     57877.22544267
  -Hartree energ DENC   =    -78842.99626351
  -exchange      EXHF   =         0.00000000
  -V(xc)+E(xc)   XCENC  =       402.57952604
  PAW double counting   =     29954.43593647   -29240.62938114
  entropy T*S    EENTRO =        -0.03437548
  eigenvalues    EBANDS =     -2074.56039958
  atomic energy  EATOM  =     20516.95828776
  Solvation  Ediel_sol  =         0.00000000
  ---------------------------------------------------
  free energy    TOTEN  =      -371.90050226 eV

  energy without entropy =     -371.86612678  energy(sigma->0) =     -371.88331452


--------------------------------------------------------------------------------------------------------




----------------------------------------- Iteration    1(  25)  ---------------------------------------


    POTLOK:  cpu time    0.2630: real time    0.2636
    SETDIJ:  cpu time    0.0230: real time    0.0232
    EDDIAG:  cpu time    4.4933: real time    4.4947
  RMM-DIIS:  cpu time   14.9537: real time   14.9574
    ORTHCH:  cpu time    0.8789: real time    0.8789
       DOS:  cpu time    0.0030: real time    0.0034
    CHARGE:  cpu time    0.8799: real time    0.8803
    MIXING:  cpu time    0.0090: real time    0.0084
    --------------------------------------------
      LOOP:  cpu time   21.5037: real time   21.5138

 eigenvalue-minimisations  :  8640
 total energy-change (2. order) :-0.1497136E+00  (-0.4742729E-02)
 number of electron     320.0000118 magnetization       4.8011419
 augmentation part       45.9955116 magnetization       2.1946404

 Broyden mixing:
  rms(total) = 0.31655E+00    rms(broyden)= 0.31653E+00
  rms(prec ) = 0.34592E+00
  weight for this iteration     100.00

 eigenvalues of (default mixing * dielectric matrix)
  average eigenvalue GAMMA=   0.9998
  6.8546  2.3112  1.4058  1.4058  1.1934  1.1934  0.8590  0.8590  0.7390  0.5039
  0.5039  0.4609  0.3064  0.2848  0.2848  0.0787  0.1632  0.2508  0.1456  0.1924

 Free energy of the ion-electron system (eV)
  ---------------------------------------------------
  alpha Z        PSCENC =      1035.12072450
  Ewald energy   TEWEN  =     57877.22544267
  -Hartree energ DENC   =    -78839.07086728
  -exchange      EXHF   =         0.00000000
  -V(xc)+E(xc)   XCENC  =       402.36459703
  PAW double counting   =     29970.84788095   -29257.06580759
  entropy T*S    EENTRO =        -0.03246434
  eigenvalues    EBANDS =     -2078.39800956
  atomic energy  EATOM  =     20516.95828776
  Solvation  Ediel_sol  =         0.00000000
[...]
    197       5.3743      0.00000
    198       5.3744      0.00000
    199       5.4403      0.00000
    200       5.4405      0.00000
    201       6.0075      0.00000
    202       6.0077      0.00000
    203       6.0630      0.00000
    204       6.0641      0.00000
    205       6.3711      0.00000
    206       6.3712      0.00000
    207       6.4255      0.00000
    208       6.4265      0.00000
    209       6.8138      0.00000
    210       6.8139      0.00000
    211       6.8287      0.00000
    212       6.8289      0.00000
    213       7.6694      0.00000
    214       7.6696      0.00000
    215       7.8991      0.00000
    216       7.8996      0.00000


--------------------------------------------------------------------------------------------------------


 soft charge-density along one line, spin component           1
         0         1         2         3         4         5         6         7         8         9
 total charge-density along one line
 
 soft charge-density along one line, spin component           2
         0         1         2         3         4         5         6         7         8         9
 total charge-density along one line
 
 pseudopotential strength for first ion, spin component:           1
 12.862 -15.705  -0.040  -0.000  -0.040   0.050   0.000   0.050
-15.705  19.200   0.051   0.000   0.051  -0.064  -0.000  -0.064
 -0.040   0.051  -9.227   0.000  -0.019  11.237  -0.000   0.025
 -0.000   0.000   0.000  -9.253   0.000  -0.000  11.271  -0.000
 -0.040   0.051  -0.019   0.000  -9.227   0.025  -0.000  11.237
  0.050  -0.064  11.237  -0.000   0.025 -13.566   0.000  -0.035
  0.000  -0.000  -0.000  11.271  -0.000   0.000 -13.610   0.000
  0.050  -0.064   0.025  -0.000  11.237  -0.035   0.000 -13.566
 pseudopotential strength for first ion, spin component:           2
 12.799 -15.624  -0.043  -0.000  -0.043   0.053   0.000   0.053
-15.624  19.095   0.054   0.000   0.054  -0.068  -0.000  -0.068
 -0.043   0.054  -9.156  -0.000   0.002  11.137   0.000  -0.004
 -0.000   0.000  -0.000  -9.220  -0.000   0.000  11.224   0.000
 -0.043   0.054   0.002  -0.000  -9.156  -0.004   0.000  11.137
  0.053  -0.068  11.137   0.000  -0.004 -13.426  -0.000   0.006
  0.000  -0.000   0.000  11.224   0.000  -0.000 -13.544  -0.000
  0.053  -0.068  -0.004   0.000  11.137   0.006  -0.000 -13.426
 total augmentation occupancy for first ion, spin component:           1
  2.413   0.246   0.112  -0.000   0.112   0.041  -0.000   0.041
  0.246   0.054   0.134   0.000   0.134   0.018   0.000   0.018
  0.112   0.134   1.870  -0.000   0.061   0.158   0.000   0.025
 -0.000   0.000  -0.000   1.971  -0.000   0.000   0.237   0.000
  0.112   0.134   0.061  -0.000   1.870   0.025   0.000   0.158
  0.041   0.018   0.158   0.000   0.025   0.019   0.000   0.005
 -0.000   0.000   0.000   0.237   0.000   0.000   0.032   0.000
  0.041   0.018   0.025   0.000   0.158   0.005   0.000   0.019
 total augmentation occupancy for first ion, spin component:           2
 -0.012  -0.007  -0.003  -0.000  -0.003  -0.000   0.000  -0.000
 -0.007  -0.000   0.004  -0.000   0.004  -0.001  -0.000  -0.001
 -0.003   0.004   0.050   0.000   0.026  -0.007  -0.000  -0.002
 -0.000  -0.000   0.000   0.004   0.000   0.000  -0.003   0.000
 -0.003   0.004   0.026   0.000   0.050  -0.002  -0.000  -0.007
 -0.000  -0.001  -0.007   0.000  -0.002  -0.001   0.000  -0.000
  0.000  -0.000  -0.000  -0.003  -0.000   0.000  -0.000   0.000
 -0.000  -0.001  -0.002   0.000  -0.007  -0.000   0.000  -0.001


------------------------ aborting loop because EDIFF is reached ----------------------------------------


    CHARGE:  cpu time    0.8659: real time    0.8664
    FORLOC:  cpu time    0.0300: real time    0.0298
    FORNL :  cpu time    6.2351: real time    6.2360
    STRESS:  cpu time   18.7492: real time   18.7554
    FORCOR:  cpu time    0.2810: real time    0.2807
    FORHAR:  cpu time    0.0520: real time    0.0520
    MIXING:  cpu time    0.0050: real time    0.0052
    OFIELD:  cpu time    0.0000: real time    0.0000

 ---------------------------------------------------------------------------------------------

         DFTD3 V3.0 Rev 1        
 Edisp (eV)   -9.04608

 E6    (eV) :    -5.3366
 E8    (eV) :    -3.7095
 % E8        : 41.01
    FORVDW:  cpu time    0.2480: real time    0.2489

  FORCE on cell =-STRESS in cart. coord.  units (eV):
  Direction    XX          YY          ZZ          XY          YZ          ZX
  --------------------------------------------------------------------------------------
  Alpha Z  1035.12072  1035.12072  1035.12072
  Ewald   -7088.79082 -7088.65309 71868.46960-76546.68636    -0.03579    -0.14581
  Hartree  1154.22235  1154.25454 76334.28609-74256.43429     0.00300    -0.01669
  E(xc)   -1545.38157 -1545.38095 -1541.81151    -0.00583    -0.00020    -0.00020
  Local     988.83056   988.67676************150811.29109     0.02702     0.14446
  n-local -1117.73027 -1117.72688 -1117.89920   -13.55817     0.00524    -0.01633
  augment   475.72053   475.71968   479.20459    -1.27863     0.00126     0.00285
  Kinetic  6105.06828  6105.05107  5969.97458     1.88949     0.01052     0.02316
  Fock        0.00000     0.00000     0.00000     0.00000     0.00000     0.00000
  vdW        -8.32503    -8.32504    -9.37871     0.93065    -0.00000     0.00000
  -------------------------------------------------------------------------------------
  Total      -1.26524    -1.26319   -16.04984    -3.85204     0.01104    -0.00855
  in kB      -2.25649    -2.25285   -28.62423    -6.86995     0.01969    -0.01526
  external pressure =      -11.04 kB  Pullay stress =        0.00 kB


 VOLUME and BASIS-vectors are now :
 -----------------------------------------------------------------------------
  energy-cutoff  :      500.00
  volume of cell :      898.35
      direct lattice vectors                 reciprocal lattice vectors
     0.000000000  0.000000000  6.422039890     0.000000000  0.000000000  0.155713763
     4.499147580 -4.499147580  0.000000000     0.111132163 -0.111132163  0.000000000
    15.545842160 15.545842160  0.000000000     0.032162941  0.032162941  0.000000000

  length of vectors
     6.422039890  6.362755527 21.985140821     0.155713763  0.157164611  0.045485267


 FORCES acting on ions
    electron-ion (+dipol)            ewald-force                    non-local-force                 convergence-correction
 -----------------------------------------------------------------------------------------------
   0.115E+04 0.115E+04 0.939E-01   -.117E+04 -.117E+04 0.523E-05   0.179E+02 0.179E+02 0.486E-02   0.525E-02 0.525E-02 -.982E-01
   0.115E+04 0.115E+04 -.940E-01   -.117E+04 -.117E+04 -.497E-05   0.179E+02 0.179E+02 0.425E-02   0.653E-02 0.653E-02 0.982E-01
   0.957E+03 0.943E+03 -.109E-01   -.957E+03 -.943E+03 0.409E-06   -.112E+01 -.170E+00 0.259E-02   0.529E-01 0.673E-01 0.113E-01
   0.957E+03 0.943E+03 0.107E-01   -.957E+03 -.943E+03 -.218E-05   -.112E+01 -.166E+00 0.312E-02   0.128E+00 -.617E-02 -.113E-01
   0.943E+03 0.957E+03 -.109E-01   -.943E+03 -.957E+03 0.695E-06   -.166E+00 -.113E+01 0.120E-02   0.673E-01 0.529E-01 0.113E-01
   0.943E+03 0.957E+03 0.108E-01   -.943E+03 -.957E+03 -.201E-05   -.163E+00 -.113E+01 0.173E-02   -.618E-02 0.128E+00 -.113E-01
   0.679E+03 0.679E+03 0.958E-01   -.679E+03 -.679E+03 0.114E-03   0.599E+00 0.598E+00 0.480E-02   0.115E+00 0.115E+00 -.101E+00
   0.679E+03 0.679E+03 -.962E-01   -.679E+03 -.679E+03 -.776E-04   0.599E+00 0.598E+00 0.121E-03   0.112E+00 0.112E+00 0.101E+00
   0.584E+03 0.584E+03 0.881E-02   -.581E+03 -.581E+03 0.757E-04   -.240E+01 -.240E+01 0.298E-02   0.148E+00 0.148E+00 -.881E-02
   0.584E+03 0.584E+03 -.920E-02   -.581E+03 -.581E+03 -.426E-04   -.240E+01 -.240E+01 0.293E-02   0.139E+00 0.139E+00 0.880E-02
   0.336E+03 0.295E+03 0.102E-02   -.336E+03 -.295E+03 -.567E-03   0.232E+00 -.324E+00 0.302E-02   0.108E+00 0.102E+00 -.609E-03
   0.336E+03 0.295E+03 0.657E-04   -.336E+03 -.295E+03 -.621E-03   0.233E+00 -.324E+00 0.300E-02   0.104E+00 0.770E-01 0.579E-03
   0.295E+03 0.336E+03 0.798E-03   -.295E+03 -.336E+03 -.334E-03   -.321E+00 0.229E+00 0.151E-02   0.102E+00 0.108E+00 -.607E-03
   0.295E+03 0.336E+03 -.145E-03   -.295E+03 -.336E+03 -.398E-03   -.321E+00 0.229E+00 0.149E-02   0.769E-01 0.104E+00 0.581E-03
   0.527E+02 0.528E+02 -.341E-02   -.519E+02 -.519E+02 0.182E-02   -.731E+00 -.735E+00 0.183E-02   0.694E-01 0.693E-01 0.222E-02
   0.527E+02 0.528E+02 -.424E-03   -.519E+02 -.519E+02 0.308E-02   -.731E+00 -.734E+00 0.215E-02   0.681E-01 0.680E-01 -.237E-02
   -.546E+02 -.546E+02 0.120E-01   0.540E+02 0.541E+02 -.606E-02   0.471E+00 0.470E+00 0.259E-02   0.592E-01 0.602E-01 -.836E-02
   -.546E+02 -.546E+02 -.539E-03   0.540E+02 0.541E+02 -.138E-01   0.471E+00 0.470E+00 0.285E-02   0.605E-01 0.615E-01 0.121E-01
   -.339E+03 -.299E+03 0.184E-01   0.340E+03 0.299E+03 -.216E-01   -.490E+00 0.278E+00 0.264E-02   -.182E-01 -.654E-02 0.754E-03
   -.339E+03 -.299E+03 0.179E-01   0.340E+03 0.299E+03 -.221E-01   -.489E+00 0.278E+00 0.254E-02   -.107E-01 -.146E-01 0.177E-02
   -.299E+03 -.339E+03 -.858E-05   0.299E+03 0.340E+03 0.133E-02   0.283E+00 -.492E+00 0.549E-03   -.574E-02 -.186E-01 -.447E-03
   -.299E+03 -.339E+03 -.289E-03   0.299E+03 0.340E+03 0.638E-03   0.282E+00 -.491E+00 0.429E-03   -.138E-01 -.110E-01 0.559E-03
   -.576E+03 -.576E+03 0.415E-02   0.572E+03 0.572E+03 0.389E-02   0.369E+01 0.369E+01 0.361E-02   -.203E-01 -.204E-01 -.932E-02
   -.576E+03 -.576E+03 -.597E-02   0.572E+03 0.572E+03 -.308E-02   0.369E+01 0.370E+01 0.380E-02   -.183E-01 -.185E-01 0.828E-02
   -.680E+03 -.680E+03 -.221E-01   0.681E+03 0.681E+03 0.202E-01   -.921E+00 -.918E+00 -.425E-03   -.118E+00 -.119E+00 0.292E-02
   -.680E+03 -.680E+03 -.196E-01   0.681E+03 0.681E+03 0.156E-01   -.921E+00 -.917E+00 0.510E-02   -.117E+00 -.119E+00 -.154E-03
   -.964E+03 -.954E+03 0.409E-03   0.964E+03 0.956E+03 0.381E-03   -.165E+00 -.172E+01 -.415E-02   0.347E-01 -.169E+00 0.282E-02
   -.964E+03 -.954E+03 -.705E-02   0.964E+03 0.956E+03 0.129E-01   -.165E+00 -.172E+01 -.487E-02   0.372E-01 -.173E+00 -.119E-02
   -.954E+03 -.964E+03 0.239E-02   0.956E+03 0.964E+03 -.178E-02   -.172E+01 -.172E+00 -.168E-02   -.169E+00 0.343E-01 0.251E-02
   -.954E+03 -.964E+03 -.507E-02   0.956E+03 0.964E+03 0.108E-01   -.172E+01 -.172E+00 -.235E-02   -.173E+00 0.367E-01 -.149E-02
   -.115E+04 -.115E+04 0.495E-01   0.117E+04 0.117E+04 -.693E-01   -.175E+02 -.175E+02 0.153E-01   -.815E-01 -.812E-01 0.465E-02
   -.115E+04 -.115E+04 -.329E-01   0.117E+04 0.117E+04 0.401E-01   -.175E+02 -.175E+02 -.130E-02   -.817E-01 -.814E-01 -.279E-02
   0.133E+04 0.133E+04 0.334E-01   -.133E+04 -.133E+04 0.198E-04   -.226E+01 -.226E+01 -.817E-03   0.796E-01 0.796E-01 -.330E-01
   0.133E+04 0.133E+04 -.334E-01   -.133E+04 -.133E+04 -.184E-04   -.226E+01 -.226E+01 -.220E-02   0.792E-01 0.792E-01 0.330E-01
   0.123E+04 0.123E+04 -.330E-02   -.123E+04 -.123E+04 -.613E-07   0.295E+00 0.294E+00 -.215E-02   0.806E-01 0.806E-01 0.327E-02
   0.123E+04 0.123E+04 0.325E-02   -.123E+04 -.123E+04 -.380E-05   0.291E+00 0.290E+00 -.206E-02   0.839E-01 0.839E-01 -.327E-02
   0.422E+03 0.422E+03 -.193E-02   -.422E+03 -.422E+03 -.165E-03   -.586E+00 -.587E+00 -.210E-02   0.144E+00 0.144E+00 0.200E-02
   0.422E+03 0.422E+03 0.221E-02   -.422E+03 -.422E+03 -.237E-03   -.586E+00 -.587E+00 -.242E-02   0.136E+00 0.136E+00 -.200E-02
   0.420E+03 0.420E+03 0.142E-01   -.420E+03 -.420E+03 0.313E-02   0.627E-02 0.617E-02 -.699E-03   0.124E+00 0.124E+00 -.175E-01
   0.420E+03 0.420E+03 -.180E-01   -.420E+03 -.420E+03 0.337E-03   0.631E-02 0.622E-02 -.135E-02   0.123E+00 0.123E+00 0.177E-01
   -.425E+03 -.424E+03 -.181E-01   0.425E+03 0.425E+03 0.214E-01   -.125E+00 -.127E+00 -.814E-03   0.867E-02 0.878E-02 -.380E-02
   -.425E+03 -.424E+03 -.410E-01   0.425E+03 0.425E+03 0.378E-01   -.125E+00 -.127E+00 -.443E-03   0.877E-02 0.887E-02 0.258E-02
   -.418E+03 -.418E+03 -.758E-02   0.418E+03 0.418E+03 0.745E-02   0.475E+00 0.473E+00 -.191E-02   0.112E-01 0.119E-01 0.918E-05
   -.418E+03 -.418E+03 -.591E-02   0.418E+03 0.418E+03 0.678E-02   0.475E+00 0.473E+00 -.219E-02   0.104E-01 0.111E-01 -.332E-03
   -.124E+04 -.124E+04 0.307E-01   0.124E+04 0.124E+04 -.296E-01   -.754E+00 -.756E+00 -.173E-02   -.808E-01 -.807E-01 0.401E-03
   -.124E+04 -.124E+04 0.181E-01   0.124E+04 0.124E+04 -.159E-01   -.752E+00 -.754E+00 -.189E-02   -.824E-01 -.824E-01 -.594E-03
   -.130E+04 -.130E+04 -.417E-02   0.129E+04 0.129E+04 0.473E-02   0.268E+01 0.268E+01 -.596E-03   -.822E-01 -.821E-01 -.278E-03
   -.130E+04 -.130E+04 0.647E-02   0.129E+04 0.129E+04 -.711E-02   0.268E+01 0.268E+01 -.102E-02   -.822E-01 -.821E-01 0.790E-03
 -----------------------------------------------------------------------------------------------
   0.404E+01 0.406E+01 -.168E-01   -.159E-11 0.205E-11 0.131E-14   -.522E+01 -.532E+01 0.419E-01   0.122E+01 0.122E+01 0.114E-01
 
 
 POSITION                                       TOTAL-FORCE (eV/Angst)
 -----------------------------------------------------------------------------------
      2.56316     -2.56316      0.84008         1.215422      1.215710     -0.000139
      2.56316     -2.56316      4.05110         1.215373      1.215661      0.007682
      2.03963     -0.31358      2.44559        -0.656372     -0.160690      0.002277
      2.03963     -0.31358      5.65661        -0.656321     -0.160432      0.001766
      4.81273     -3.08668      2.44559        -0.158667     -0.659232      0.000902
      4.81273     -3.08668      5.65661        -0.158408     -0.659180      0.000390
      4.28921     -0.83710      0.84008         0.277046      0.278112     -0.000584
      4.28921     -0.83710      4.05110         0.277013      0.278079      0.003645
      2.56316      1.93599      0.84008        -0.139640     -0.139382      0.002300
      2.56316      1.93599      4.05110        -0.140133     -0.139874      0.001727
      4.81273      1.41247      2.44559         0.108342     -0.185843      0.002099
      4.81273      1.41247      5.65661         0.108552     -0.186207      0.002265
      6.53878     -0.31358      2.44559        -0.184178      0.106844      0.000606
      6.53878     -0.31358      5.65661        -0.184541      0.107054      0.000771
      4.28921      3.66204      0.84008         0.236390      0.235055      0.001705
      4.28921      3.66204      4.05110         0.236424      0.235088      0.001673
      7.05787      1.93147      0.84002        -0.013753     -0.014049     -0.000607
      7.05787      1.93147      4.05106        -0.013770     -0.014061     -0.000150
      6.54099      4.19957      2.44560         0.018970      0.015874     -0.000515
      6.54099      4.19956      5.65662         0.018918      0.015990     -0.000587
      9.32591      1.41457      2.44546         0.015857      0.018585      0.000661
      9.32590      1.41457      5.65649         0.015973      0.018531      0.000577
      8.76639      3.64004      0.83999         0.004075      0.004091      0.001572
      8.76641      3.64006      4.05102         0.003072      0.003068      0.002278
      7.07334      6.44623      0.83953         0.009442      0.012250     -0.000117
      7.07335      6.44623      4.05047         0.009367      0.012162      0.000253
      9.36221      5.93484      2.44548         0.005774      0.012329     -0.001301
      9.36223      5.93483      5.65647         0.005186      0.012680     -0.000922
     11.06102      4.23609      2.44550         0.011840      0.007178      0.000669
     11.06101      4.23611      5.65649         0.011997      0.006322      0.001111
      8.76067      8.13382      0.83980         0.009950      0.009304     -0.000496
      8.76067      8.13382      4.05066         0.010024      0.009298      0.002390
      1.17661      0.54944      0.84008         1.239474      1.241041     -0.001176
      1.17661      0.54944      4.05110         1.240548      1.242114     -0.003350
      3.42618     -1.70013      2.44559        -1.620937     -1.620092     -0.002941
      3.42618     -1.70013      5.65661        -1.628336     -1.627492     -0.002843
      3.42618      2.79902      2.44559        -0.326668     -0.325966     -0.002947
      3.42618      2.79902      5.65661        -0.326442     -0.325739     -0.003202
      5.67576      0.54944      0.84008        -0.049604     -0.047929     -0.001652
      5.67576      0.54944      4.05110        -0.049604     -0.047930     -0.002062
      5.68755      5.06039      0.84000         0.003171      0.003118     -0.002058
      5.68755      5.06039      4.05101         0.003202      0.003153     -0.001843
      7.91775      2.79138      2.44549        -0.005315     -0.004552     -0.002790
      7.91775      2.79138      5.65651        -0.005223     -0.004454     -0.002407
      7.99358      7.36665      2.44512        -0.012131     -0.012394     -0.000929
      7.99346      7.36653      5.65614        -0.010147     -0.010195     -0.001015
     10.11570      4.98966      0.83996         0.013931      0.013036     -0.001059
     10.11566      4.98962      4.05099         0.014859      0.013964     -0.001625
 -----------------------------------------------------------------------------------
    total drift:                                0.045120     -0.038197      0.036435
  FORCES: max atom, RMS     0.024777    0.011468
  Number: max atom                20
  FORCE total and by dimension    0.079454    0.018970


--------------------------------------------------------------------------------------------------------



  FREE ENERGIE OF THE ION-ELECTRON SYSTEM (eV)
  ---------------------------------------------------
  free  energy   TOTEN  =      -381.82535187 eV

  energy  without entropy=     -381.79249693  energy(sigma->0) =     -381.80892440
 
 d Force = 0.4837977E-03[ 0.206E-03, 0.761E-03]  d Energy = 0.3765671E-03 0.107E-03
 d Force = 0.2142107E+02[ 0.214E+02, 0.214E+02]  d Ewald  = 0.2142107E+02 0.229E-06


--------------------------------------------------------------------------------------------------------


    POTLOK:  cpu time    0.2910: real time    0.2941


--------------------------------------------------------------------------------------------------------


 Conjugate gradient step on ions:
 trial-energy change:   -0.000377  1 .order   -0.000484   -0.000761   -0.000206
  (g-gl).g = 0.200E-03      g.g   = 0.304E-03  gl.gl    = 0.422E-03
 g(Force)  = 0.304E-03   g(Stress)= 0.000E+00 ortho     = 0.402E-04
 gamma     =   0.47513
 trial     =   2.35793
 opt step  =   3.23519  (harmonic =   3.23519) maximal distance =0.00186261
 next E    =  -381.825497   (d E  =  -0.00052)


--------------------------------------------------------------------------------------------------------


  
 reached required accuracy - stopping structural energy minimisation
     LOOP+:  cpu time  121.8705: real time  121.9215
    4ORBIT:  cpu time    0.0000: real time    0.0000

 total amount of memory used by VASP on root node   128736. kBytes
========================================================================

   base      :      30000. kBytes
   nonlr-proj:       9911. kBytes
   fftplans  :       5964. kBytes
   grid      :      14807. kBytes
   one-center:        248. kBytes
   wavefun   :      67806. kBytes
 
  
  
 General timing and accounting informations for this job:
 ========================================================
  
                  Total CPU time used (sec):     3671.943
                            User time (sec):     3667.108
                          System time (sec):        4.835
                         Elapsed time (sec):     3683.743
  
                   Maximum memory used (kb):      204500.
                   Average memory used (kb):           0.
  
                          Minor page faults:        90765
                          Major page faults:            0
                 Voluntary context switches:         4791
