OsO2_suf110_2x1x4_2fix                  
           1
     0.000000    0.000000    6.422040
     4.499148   -4.499148    0.000000
    15.545842   15.545842    0.000000
   O    Os
  32  16
Direct configuration=     1
   0.13081166  0.56969810  0.00000000
   0.63081166  0.56969810  0.00000000
   0.38081166  0.26151810  0.05551494
   0.88081166  0.26151810  0.05551494
   0.38081166  0.87787810  0.05551494
   0.88081166  0.87787810  0.05551494
   0.13081166  0.56969810  0.11102988
   0.63081166  0.56969810  0.11102988
   0.13081166  0.06969810  0.14470582
   0.63081166  0.06969810  0.14470582
   0.38081166  0.37787810  0.20022076
   0.88081166  0.37787810  0.20022076
   0.38081166  0.76151810  0.20022076
   0.88081166  0.76151810  0.20022076
   0.13081166  0.06969810  0.25573570
   0.63081166  0.06969810  0.25573570
   0.13081166  0.56969810  0.28941163
   0.63081166  0.56969810  0.28941163
   0.38081166  0.26151810  0.34492657
   0.88081166  0.26151810  0.34492657
   0.38081166  0.87787810  0.34492657
   0.88081166  0.87787810  0.34492657
   0.13081166  0.56969810  0.40044151
   0.63081166  0.56969810  0.40044151
   0.13081166  0.06969810  0.43411745
   0.63081166  0.06969810  0.43411745
   0.38081166  0.37787810  0.48963239
   0.88081166  0.37787810  0.48963239
   0.38081166  0.76151810  0.48963239
   0.88081166  0.76151810  0.48963239
   0.13081166  0.06969810  0.54514733
   0.63081166  0.06969810  0.54514733
   0.13081166  0.06969810  0.05551494
   0.63081166  0.06969810  0.05551494
   0.38081166  0.56969810  0.05551494
   0.88081166  0.56969810  0.05551494
   0.38081166  0.06969810  0.20022076
   0.88081166  0.06969810  0.20022076
   0.13081166  0.56969810  0.20022076
   0.63081166  0.56969810  0.20022076
   0.13081166  0.06969810  0.34492657
   0.63081166  0.06969810  0.34492657
   0.38081166  0.56969810  0.34492657
   0.88081166  0.56969810  0.34492657
   0.38081166  0.06969810  0.48963239
   0.88081166  0.06969810  0.48963239
   0.13081166  0.56969810  0.48963239
   0.63081166  0.56969810  0.48963239
Direct configuration=     2
   0.13081166  0.56969810  0.00000000
   0.63081166  0.56969810  0.00000000
   0.38081166  0.26151810  0.05551494
   0.88081166  0.26151810  0.05551494
   0.38081166  0.87787810  0.05551494
   0.88081166  0.87787810  0.05551494
   0.13081166  0.56969810  0.11102988
   0.63081166  0.56969810  0.11102988
   0.13081166  0.06969810  0.14470582
   0.63081166  0.06969810  0.14470582
   0.38081166  0.37787810  0.20022076
   0.88081166  0.37787810  0.20022076
   0.38081166  0.76151810  0.20022076
   0.88081166  0.76151810  0.20022076
   0.13081166  0.06969810  0.25573570
   0.63081166  0.06969810  0.25573570
   0.13081037  0.56969675  0.28939146
   0.63081060  0.56969676  0.28939140
   0.38081262  0.26121406  0.34494931
   0.88081246  0.26121414  0.34494930
   0.38081484  0.87818729  0.34494967
   0.88081468  0.87818720  0.34494966
   0.13081509  0.56969824  0.40054250
   0.63081533  0.56969824  0.40054250
   0.13080808  0.06969679  0.43393743
   0.63080806  0.06969679  0.43393739
   0.38080885  0.37843397  0.48988688
   0.88080907  0.37843400  0.48988687
   0.38081107  0.76096223  0.48988535
   0.88081129  0.76096219  0.48988535
   0.13081550  0.06969778  0.54438070
   0.63081542  0.06969777  0.54438072
   0.13081166  0.06969810  0.05551494
   0.63081166  0.06969810  0.05551494
   0.38081166  0.56969810  0.05551494
   0.88081166  0.56969810  0.05551494
   0.38081166  0.06969810  0.20022076
   0.88081166  0.06969810  0.20022076
   0.13081166  0.56969810  0.20022076
   0.63081166  0.56969810  0.20022076
   0.13080845  0.06969720  0.34491423
   0.63080844  0.06969720  0.34491422
   0.38080721  0.56969846  0.34513163
   0.88080723  0.56969846  0.34513165
   0.38081216  0.06969870  0.49065248
   0.88081223  0.06969870  0.49065244
   0.13081099  0.56969559  0.48885472
   0.63081104  0.56969559  0.48885469
Direct configuration=     3
   0.13081166  0.56969810  0.00000000
   0.63081166  0.56969810  0.00000000
   0.38081166  0.26151810  0.05551494
   0.88081166  0.26151810  0.05551494
   0.38081166  0.87787810  0.05551494
   0.88081166  0.87787810  0.05551494
   0.13081166  0.56969810  0.11102988
   0.63081166  0.56969810  0.11102988
   0.13081166  0.06969810  0.14470582
   0.63081166  0.06969810  0.14470582
   0.38081166  0.37787810  0.20022076
   0.88081166  0.37787810  0.20022076
   0.38081166  0.76151810  0.20022076
   0.88081166  0.76151810  0.20022076
   0.13081166  0.06969810  0.25573570
   0.63081166  0.06969810  0.25573570
   0.13080707  0.56969331  0.28933958
   0.63080787  0.56969331  0.28933938
   0.38081509  0.26043244  0.34500777
   0.88081451  0.26043274  0.34500774
   0.38082302  0.87898214  0.34500904
   0.88082244  0.87898183  0.34500901
   0.13082392  0.56969861  0.40080211
   0.63082475  0.56969860  0.40080210
   0.13079887  0.06969343  0.43347465
   0.63079879  0.06969344  0.43347449
   0.38080164  0.37986298  0.49054110
   0.88080240  0.37986311  0.49054107
   0.38080955  0.75953322  0.49053566
   0.88081032  0.75953308  0.49053563
   0.13082535  0.06969695  0.54240989
   0.63082510  0.06969695  0.54240993
   0.13081166  0.06969810  0.05551494
   0.63081166  0.06969810  0.05551494
   0.38081166  0.56969810  0.05551494
   0.88081166  0.56969810  0.05551494
   0.38081166  0.06969810  0.20022076
   0.88081166  0.06969810  0.20022076
   0.13081166  0.56969810  0.20022076
   0.63081166  0.56969810  0.20022076
   0.13080020  0.06969490  0.34488249
   0.63080018  0.06969490  0.34488245
   0.38079576  0.56969940  0.34565879
   0.88079582  0.56969940  0.34565885
   0.38081344  0.06970027  0.49327488
   0.88081370  0.06970026  0.49327477
   0.13080925  0.56968914  0.48685551
   0.63080943  0.56968915  0.48685541
Direct configuration=     4
   0.13081166  0.56969810  0.00000000
   0.63081166  0.56969810  0.00000000
   0.38081166  0.26151810  0.05551494
   0.88081166  0.26151810  0.05551494
   0.38081166  0.87787810  0.05551494
   0.88081166  0.87787810  0.05551494
   0.13081166  0.56969810  0.11102988
   0.63081166  0.56969810  0.11102988
   0.13081166  0.06969810  0.14470582
   0.63081166  0.06969810  0.14470582
   0.38081166  0.37787810  0.20022076
   0.88081166  0.37787810  0.20022076
   0.38081166  0.76151810  0.20022076
   0.88081166  0.76151810  0.20022076
   0.13081166  0.06969810  0.25573570
   0.63081166  0.06969810  0.25573570
   0.13080726  0.56969350  0.28934258
   0.63080803  0.56969351  0.28934239
   0.38081495  0.26047767  0.34500439
   0.88081439  0.26047795  0.34500435
   0.38082255  0.87893615  0.34500561
   0.88082199  0.87893586  0.34500558
   0.13082341  0.56969858  0.40078709
   0.63082421  0.56969858  0.40078708
   0.13079941  0.06969362  0.43350143
   0.63079932  0.06969364  0.43350128
   0.38080206  0.37978030  0.49050325
   0.88080278  0.37978042  0.49050322
   0.38080963  0.75961590  0.49049804
   0.88081037  0.75961576  0.49049801
   0.13082478  0.06969700  0.54252392
   0.63082454  0.06969700  0.54252396
   0.13081166  0.06969810  0.05551494
   0.63081166  0.06969810  0.05551494
   0.38081166  0.56969810  0.05551494
   0.88081166  0.56969810  0.05551494
   0.38081166  0.06969810  0.20022076
   0.88081166  0.06969810  0.20022076
   0.13081166  0.56969810  0.20022076
   0.63081166  0.56969810  0.20022076
   0.13080068  0.06969503  0.34488432
   0.63080065  0.06969503  0.34488429
   0.38079642  0.56969934  0.34562829
   0.88079648  0.56969935  0.34562835
   0.38081336  0.06970017  0.49312315
   0.88081362  0.06970017  0.49312304
   0.13080935  0.56968951  0.48697118
   0.63080953  0.56968952  0.48697109
Direct configuration=     5
   0.13081166  0.56969810  0.00000000
   0.63081166  0.56969810  0.00000000
   0.38081166  0.26151810  0.05551494
   0.88081166  0.26151810  0.05551494
   0.38081166  0.87787810  0.05551494
   0.88081166  0.87787810  0.05551494
   0.13081166  0.56969810  0.11102988
   0.63081166  0.56969810  0.11102988
   0.13081166  0.06969810  0.14470582
   0.63081166  0.06969810  0.14470582
   0.38081166  0.37787810  0.20022076
   0.88081166  0.37787810  0.20022076
   0.38081166  0.76151810  0.20022076
   0.88081166  0.76151810  0.20022076
   0.13081166  0.06969810  0.25573570
   0.63081166  0.06969810  0.25573570
   0.13080383  0.56969342  0.28948541
   0.63080428  0.56969342  0.28948530
   0.38081545  0.26036284  0.34505088
   0.88081510  0.26036296  0.34505085
   0.38081784  0.87905436  0.34505206
   0.88081748  0.87905424  0.34505203
   0.13082596  0.56969822  0.40044942
   0.63082642  0.56969822  0.40044940
   0.13079870  0.06969270  0.43367641
   0.63079900  0.06969306  0.43367618
   0.38080099  0.38016640  0.49076988
   0.88080151  0.38016655  0.49076986
   0.38081410  0.75922499  0.49076454
   0.88081462  0.75922483  0.49076452
   0.13082524  0.06969562  0.54245715
   0.63082476  0.06969561  0.54245717
   0.13081166  0.06969810  0.05551494
   0.63081166  0.06969810  0.05551494
   0.38081166  0.56969810  0.05551494
   0.88081166  0.56969810  0.05551494
   0.38081166  0.06969810  0.20022076
   0.88081166  0.06969810  0.20022076
   0.13081166  0.56969810  0.20022076
   0.63081166  0.56969810  0.20022076
   0.13080391  0.06969811  0.34492976
   0.63080392  0.06969811  0.34492972
   0.38080266  0.56970152  0.34548577
   0.88080266  0.56970152  0.34548580
   0.38080377  0.06969679  0.49306878
   0.88080383  0.06969678  0.49306863
   0.13080366  0.56968989  0.48672128
   0.63080372  0.56968989  0.48672121
Direct configuration=     6
   0.13081166  0.56969810  0.00000000
   0.63081166  0.56969810  0.00000000
   0.38081166  0.26151810  0.05551494
   0.88081166  0.26151810  0.05551494
   0.38081166  0.87787810  0.05551494
   0.88081166  0.87787810  0.05551494
   0.13081166  0.56969810  0.11102988
   0.63081166  0.56969810  0.11102988
   0.13081166  0.06969810  0.14470582
   0.63081166  0.06969810  0.14470582
   0.38081166  0.37787810  0.20022076
   0.88081166  0.37787810  0.20022076
   0.38081166  0.76151810  0.20022076
   0.88081166  0.76151810  0.20022076
   0.13081166  0.06969810  0.25573570
   0.63081166  0.06969810  0.25573570
   0.13079485  0.56969318  0.28985998
   0.63079444  0.56969318  0.28986005
   0.38081676  0.26006173  0.34517281
   0.88081696  0.26006141  0.34517279
   0.38080548  0.87936435  0.34517387
   0.88080568  0.87936468  0.34517385
   0.13083266  0.56969728  0.39956388
   0.63083222  0.56969728  0.39956383
   0.13079686  0.06969028  0.43413527
   0.63079817  0.06969154  0.43413487
   0.38079821  0.38117893  0.49146910
   0.88079816  0.38117914  0.49146910
   0.38082580  0.75819983  0.49146345
   0.88082576  0.75819961  0.49146344
   0.13082644  0.06969199  0.54228205
   0.63082535  0.06969199  0.54228201
   0.13081166  0.06969810  0.05551494
   0.63081166  0.06969810  0.05551494
   0.38081166  0.56969810  0.05551494
   0.88081166  0.56969810  0.05551494
   0.38081166  0.06969810  0.20022076
   0.88081166  0.06969810  0.20022076
   0.13081166  0.56969810  0.20022076
   0.63081166  0.56969810  0.20022076
   0.13081239  0.06970619  0.34504890
   0.63081248  0.06970620  0.34504887
   0.38081904  0.56970722  0.34511202
   0.88081885  0.56970722  0.34511198
   0.38077860  0.06968792  0.49292619
   0.88077815  0.06968791  0.49292594
   0.13078875  0.56969086  0.48606591
   0.63078850  0.56969087  0.48606592
Direct configuration=     7
   0.13081166  0.56969810  0.00000000
   0.63081166  0.56969810  0.00000000
   0.38081166  0.26151810  0.05551494
   0.88081166  0.26151810  0.05551494
   0.38081166  0.87787810  0.05551494
   0.88081166  0.87787810  0.05551494
   0.13081166  0.56969810  0.11102988
   0.63081166  0.56969810  0.11102988
   0.13081166  0.06969810  0.14470582
   0.63081166  0.06969810  0.14470582
   0.38081166  0.37787810  0.20022076
   0.88081166  0.37787810  0.20022076
   0.38081166  0.76151810  0.20022076
   0.88081166  0.76151810  0.20022076
   0.13081166  0.06969810  0.25573570
   0.63081166  0.06969810  0.25573570
   0.13079728  0.56969205  0.28961448
   0.63079716  0.56969205  0.28961452
   0.38081879  0.26014872  0.34522833
   0.88081898  0.26014863  0.34522830
   0.38081128  0.87928005  0.34522866
   0.88081143  0.87928015  0.34522863
   0.13083728  0.56969956  0.39939939
   0.63083715  0.56969957  0.39939936
   0.13078753  0.06968862  0.43415482
   0.63078863  0.06968974  0.43415458
   0.38078759  0.38102742  0.49159803
   0.88078756  0.38102753  0.49159802
   0.38082152  0.75835329  0.49159280
   0.88082146  0.75835318  0.49159279
   0.13081537  0.06968839  0.54232000
   0.63081498  0.06968840  0.54231999
   0.13081166  0.06969810  0.05551494
   0.63081166  0.06969810  0.05551494
   0.38081166  0.56969810  0.05551494
   0.88081166  0.56969810  0.05551494
   0.38081166  0.06969810  0.20022076
   0.88081166  0.06969810  0.20022076
   0.13081166  0.56969810  0.20022076
   0.63081166  0.56969810  0.20022076
   0.13080646  0.06970608  0.34518326
   0.63080644  0.06970617  0.34518316
   0.38080964  0.56970768  0.34494437
   0.88080969  0.56970768  0.34494435
   0.38078544  0.06968685  0.49300481
   0.88078546  0.06968685  0.49300483
   0.13079706  0.56968700  0.48606572
   0.63079702  0.56968700  0.48606574
Direct configuration=     8
   0.13081166  0.56969810  0.00000000
   0.63081166  0.56969810  0.00000000
   0.38081166  0.26151810  0.05551494
   0.88081166  0.26151810  0.05551494
   0.38081166  0.87787810  0.05551494
   0.88081166  0.87787810  0.05551494
   0.13081166  0.56969810  0.11102988
   0.63081166  0.56969810  0.11102988
   0.13081166  0.06969810  0.14470582
   0.63081166  0.06969810  0.14470582
   0.38081166  0.37787810  0.20022076
   0.88081166  0.37787810  0.20022076
   0.38081166  0.76151810  0.20022076
   0.88081166  0.76151810  0.20022076
   0.13081166  0.06969810  0.25573570
   0.63081166  0.06969810  0.25573570
   0.13080244  0.56968964  0.28909355
   0.63080293  0.56968963  0.28909353
   0.38082308  0.26033333  0.34534615
   0.88082327  0.26033369  0.34534609
   0.38082359  0.87910116  0.34534491
   0.88082365  0.87910079  0.34534485
   0.13084708  0.56970440  0.39905034
   0.63084760  0.56970444  0.39905035
   0.13076774  0.06968509  0.43419629
   0.63076839  0.06968592  0.43419639
   0.38076506  0.38070594  0.49187163
   0.88076508  0.38070584  0.49187158
   0.38081244  0.75867893  0.49186729
   0.88081233  0.75867903  0.49186725
   0.13079188  0.06968075  0.54240052
   0.63079298  0.06968079  0.54240058
   0.13081166  0.06969810  0.05551494
   0.63081166  0.06969810  0.05551494
   0.38081166  0.56969810  0.05551494
   0.88081166  0.56969810  0.05551494
   0.38081166  0.06969810  0.20022076
   0.88081166  0.06969810  0.20022076
   0.13081166  0.56969810  0.20022076
   0.63081166  0.56969810  0.20022076
   0.13079389  0.06970584  0.34546835
   0.63079360  0.06970610  0.34546811
   0.38078968  0.56970865  0.34458861
   0.88079023  0.56970866  0.34458866
   0.38079997  0.06968458  0.49317164
   0.88080098  0.06968458  0.49317222
   0.13081471  0.56967879  0.48606532
   0.63081510  0.56967879  0.48606535
Direct configuration=     9
   0.13081166  0.56969810  0.00000000
   0.63081166  0.56969810  0.00000000
   0.38081166  0.26151810  0.05551494
   0.88081166  0.26151810  0.05551494
   0.38081166  0.87787810  0.05551494
   0.88081166  0.87787810  0.05551494
   0.13081166  0.56969810  0.11102988
   0.63081166  0.56969810  0.11102988
   0.13081166  0.06969810  0.14470582
   0.63081166  0.06969810  0.14470582
   0.38081166  0.37787810  0.20022076
   0.88081166  0.37787810  0.20022076
   0.38081166  0.76151810  0.20022076
   0.88081166  0.76151810  0.20022076
   0.13081166  0.06969810  0.25573570
   0.63081166  0.06969810  0.25573570
   0.13080083  0.56969433  0.28899149
   0.63080065  0.56969431  0.28899147
   0.38081481  0.26030451  0.34541018
   0.88081491  0.26030459  0.34541014
   0.38080983  0.87913006  0.34541020
   0.88080973  0.87912998  0.34541016
   0.13083267  0.56970667  0.39908266
   0.63083288  0.56970671  0.39908256
   0.13076191  0.06968301  0.43431648
   0.63076315  0.06968359  0.43431655
   0.38077674  0.38082782  0.49196918
   0.88077719  0.38082706  0.49196920
   0.38082100  0.75854975  0.49196472
   0.88082131  0.75855051  0.49196474
   0.13079403  0.06967727  0.54254504
   0.63079669  0.06967732  0.54254498
   0.13081166  0.06969810  0.05551494
   0.63081166  0.06969810  0.05551494
   0.38081166  0.56969810  0.05551494
   0.88081166  0.56969810  0.05551494
   0.38081166  0.06969810  0.20022076
   0.88081166  0.06969810  0.20022076
   0.13081166  0.56969810  0.20022076
   0.63081166  0.56969810  0.20022076
   0.13081088  0.06970565  0.34545770
   0.63081148  0.06970581  0.34545771
   0.38080491  0.56970835  0.34434444
   0.88080477  0.56970835  0.34434441
   0.38076720  0.06968038  0.49332843
   0.88076655  0.06968037  0.49332922
   0.13079767  0.56968119  0.48593724
   0.63079748  0.56968117  0.48593740
Direct configuration=    10
   0.13081166  0.56969810  0.00000000
   0.63081166  0.56969810  0.00000000
   0.38081166  0.26151810  0.05551494
   0.88081166  0.26151810  0.05551494
   0.38081166  0.87787810  0.05551494
   0.88081166  0.87787810  0.05551494
   0.13081166  0.56969810  0.11102988
   0.63081166  0.56969810  0.11102988
   0.13081166  0.06969810  0.14470582
   0.63081166  0.06969810  0.14470582
   0.38081166  0.37787810  0.20022076
   0.88081166  0.37787810  0.20022076
   0.38081166  0.76151810  0.20022076
   0.88081166  0.76151810  0.20022076
   0.13081166  0.06969810  0.25573570
   0.63081166  0.06969810  0.25573570
   0.13080079  0.56969444  0.28898912
   0.63080060  0.56969442  0.28898910
   0.38081462  0.26030384  0.34541166
   0.88081471  0.26030391  0.34541163
   0.38080951  0.87913073  0.34541171
   0.88080941  0.87913065  0.34541168
   0.13083233  0.56970673  0.39908341
   0.63083254  0.56970677  0.39908331
   0.13076177  0.06968296  0.43431927
   0.63076303  0.06968354  0.43431934
   0.38077701  0.38083064  0.49197144
   0.88077747  0.38082987  0.49197146
   0.38082120  0.75854675  0.49196698
   0.88082151  0.75854752  0.49196700
   0.13079408  0.06967719  0.54254840
   0.63079677  0.06967724  0.54254833
   0.13081166  0.06969810  0.05551494
   0.63081166  0.06969810  0.05551494
   0.38081166  0.56969810  0.05551494
   0.88081166  0.56969810  0.05551494
   0.38081166  0.06969810  0.20022076
   0.88081166  0.06969810  0.20022076
   0.13081166  0.56969810  0.20022076
   0.63081166  0.56969810  0.20022076
   0.13081128  0.06970564  0.34545745
   0.63081190  0.06970581  0.34545747
   0.38080527  0.56970834  0.34433878
   0.88080511  0.56970834  0.34433875
   0.38076644  0.06968028  0.49333207
   0.88076575  0.06968028  0.49333287
   0.13079727  0.56968124  0.48593426
   0.63079707  0.56968122  0.48593443
Direct configuration=    11
   0.13081166  0.56969810  0.00000000
   0.63081166  0.56969810  0.00000000
   0.38081166  0.26151810  0.05551494
   0.88081166  0.26151810  0.05551494
   0.38081166  0.87787810  0.05551494
   0.88081166  0.87787810  0.05551494
   0.13081166  0.56969810  0.11102988
   0.63081166  0.56969810  0.11102988
   0.13081166  0.06969810  0.14470582
   0.63081166  0.06969810  0.14470582
   0.38081166  0.37787810  0.20022076
   0.88081166  0.37787810  0.20022076
   0.38081166  0.76151810  0.20022076
   0.88081166  0.76151810  0.20022076
   0.13081166  0.06969810  0.25573570
   0.63081166  0.06969810  0.25573570
   0.13080813  0.56969604  0.28903150
   0.63080807  0.56969602  0.28903149
   0.38081937  0.26025715  0.34540954
   0.88081940  0.26025715  0.34540952
   0.38080773  0.87917407  0.34540929
   0.88080758  0.87917406  0.34540926
   0.13082484  0.56970685  0.39904751
   0.63082510  0.56970688  0.39904746
   0.13075671  0.06968774  0.43441861
   0.63075861  0.06968816  0.43441861
   0.38078395  0.38095098  0.49197545
   0.88078452  0.38095045  0.49197553
   0.38081851  0.75842112  0.49197192
   0.88081897  0.75842165  0.49197200
   0.13078935  0.06967319  0.54269516
   0.63079208  0.06967325  0.54269518
   0.13081166  0.06969810  0.05551494
   0.63081166  0.06969810  0.05551494
   0.38081166  0.56969810  0.05551494
   0.88081166  0.56969810  0.05551494
   0.38081166  0.06969810  0.20022076
   0.88081166  0.06969810  0.20022076
   0.13081166  0.56969810  0.20022076
   0.63081166  0.56969810  0.20022076
   0.13080666  0.06970663  0.34547423
   0.63080664  0.06970671  0.34547428
   0.38079890  0.56970619  0.34437235
   0.88079890  0.56970619  0.34437233
   0.38075607  0.06967789  0.49343453
   0.88075650  0.06967789  0.49343518
   0.13079102  0.56968140  0.48591076
   0.63079121  0.56968137  0.48591088
Direct configuration=    12
   0.13081166  0.56969810  0.00000000
   0.63081166  0.56969810  0.00000000
   0.38081166  0.26151810  0.05551494
   0.88081166  0.26151810  0.05551494
   0.38081166  0.87787810  0.05551494
   0.88081166  0.87787810  0.05551494
   0.13081166  0.56969810  0.11102988
   0.63081166  0.56969810  0.11102988
   0.13081166  0.06969810  0.14470582
   0.63081166  0.06969810  0.14470582
   0.38081166  0.37787810  0.20022076
   0.88081166  0.37787810  0.20022076
   0.38081166  0.76151810  0.20022076
   0.88081166  0.76151810  0.20022076
   0.13081166  0.06969810  0.25573570
   0.63081166  0.06969810  0.25573570
   0.13082614  0.56969996  0.28913546
   0.63082639  0.56969993  0.28913545
   0.38083104  0.26014261  0.34540433
   0.88083090  0.26014245  0.34540433
   0.38080337  0.87928038  0.34540335
   0.88080309  0.87928056  0.34540334
   0.13080644  0.56970717  0.39895945
   0.63080684  0.56970716  0.39895954
   0.13074429  0.06969947  0.43466229
   0.63074776  0.06969949  0.43466211
   0.38080098  0.38124617  0.49198528
   0.88080183  0.38124624  0.49198549
   0.38081190  0.75811295  0.49198406
   0.88081275  0.75811287  0.49198427
   0.13077776  0.06966337  0.54305518
   0.63078055  0.06966346  0.54305540
   0.13081166  0.06969810  0.05551494
   0.63081166  0.06969810  0.05551494
   0.38081166  0.56969810  0.05551494
   0.88081166  0.56969810  0.05551494
   0.38081166  0.06969810  0.20022076
   0.88081166  0.06969810  0.20022076
   0.13081166  0.56969810  0.20022076
   0.63081166  0.56969810  0.20022076
   0.13079532  0.06970906  0.34551539
   0.63079374  0.06970894  0.34551550
   0.38078328  0.56970091  0.34445470
   0.88078366  0.56970090  0.34445471
   0.38073065  0.06967203  0.49368588
   0.88073383  0.06967203  0.49368618
   0.13077567  0.56968178  0.48585309
   0.63077684  0.56968172  0.48585313
Direct configuration=    13
   0.13081166  0.56969810  0.00000000
   0.63081166  0.56969810  0.00000000
   0.38081166  0.26151810  0.05551494
   0.88081166  0.26151810  0.05551494
   0.38081166  0.87787810  0.05551494
   0.88081166  0.87787810  0.05551494
   0.13081166  0.56969810  0.11102988
   0.63081166  0.56969810  0.11102988
   0.13081166  0.06969810  0.14470582
   0.63081166  0.06969810  0.14470582
   0.38081166  0.37787810  0.20022076
   0.88081166  0.37787810  0.20022076
   0.38081166  0.76151810  0.20022076
   0.88081166  0.76151810  0.20022076
   0.13081166  0.06969810  0.25573570
   0.63081166  0.06969810  0.25573570
   0.13082038  0.56970265  0.28914490
   0.63081831  0.56970263  0.28914490
   0.38082483  0.26014968  0.34541127
   0.88082488  0.26014884  0.34541126
   0.38079709  0.87926883  0.34540965
   0.88079707  0.87926966  0.34540964
   0.13080106  0.56970520  0.39899515
   0.63079898  0.56970518  0.39899577
   0.13073651  0.06969940  0.43472806
   0.63073619  0.06969930  0.43472800
   0.38079995  0.38117586  0.49199024
   0.88079917  0.38117698  0.49199060
   0.38080511  0.75818356  0.49199010
   0.88080433  0.75818243  0.49199046
   0.13077220  0.06966242  0.54317980
   0.63076551  0.06966251  0.54317984
   0.13081166  0.06969810  0.05551494
   0.63081166  0.06969810  0.05551494
   0.38081166  0.56969810  0.05551494
   0.88081166  0.56969810  0.05551494
   0.38081166  0.06969810  0.20022076
   0.88081166  0.06969810  0.20022076
   0.13081166  0.56969810  0.20022076
   0.63081166  0.56969810  0.20022076
   0.13080011  0.06970550  0.34557902
   0.63080054  0.06970539  0.34557911
   0.38079144  0.56970293  0.34445604
   0.88079120  0.56970292  0.34445586
   0.38073476  0.06967069  0.49382014
   0.88073560  0.06967069  0.49381759
   0.13078301  0.56967635  0.48581090
   0.63078386  0.56967632  0.48581014
Direct configuration=    14
   0.13081166  0.56969810  0.00000000
   0.63081166  0.56969810  0.00000000
   0.38081166  0.26151810  0.05551494
   0.88081166  0.26151810  0.05551494
   0.38081166  0.87787810  0.05551494
   0.88081166  0.87787810  0.05551494
   0.13081166  0.56969810  0.11102988
   0.63081166  0.56969810  0.11102988
   0.13081166  0.06969810  0.14470582
   0.63081166  0.06969810  0.14470582
   0.38081166  0.37787810  0.20022076
   0.88081166  0.37787810  0.20022076
   0.38081166  0.76151810  0.20022076
   0.88081166  0.76151810  0.20022076
   0.13081166  0.06969810  0.25573570
   0.63081166  0.06969810  0.25573570
   0.13081509  0.56970513  0.28915356
   0.63081089  0.56970510  0.28915356
   0.38081914  0.26015616  0.34541763
   0.88081936  0.26015471  0.34541762
   0.38079132  0.87925822  0.34541543
   0.88079156  0.87925967  0.34541542
   0.13079613  0.56970339  0.39902791
   0.63079176  0.56970336  0.39902901
   0.13072938  0.06969933  0.43478841
   0.63072557  0.06969912  0.43478846
   0.38079901  0.38111135  0.49199478
   0.88079673  0.38111343  0.49199529
   0.38079888  0.75824835  0.49199564
   0.88079661  0.75824626  0.49199615
   0.13076710  0.06966154  0.54329415
   0.63075171  0.06966164  0.54329401
   0.13081166  0.06969810  0.05551494
   0.63081166  0.06969810  0.05551494
   0.38081166  0.56969810  0.05551494
   0.88081166  0.56969810  0.05551494
   0.38081166  0.06969810  0.20022076
   0.88081166  0.06969810  0.20022076
   0.13081166  0.56969810  0.20022076
   0.63081166  0.56969810  0.20022076
   0.13080450  0.06970223  0.34563741
   0.63080678  0.06970214  0.34563747
   0.38079893  0.56970478  0.34445727
   0.88079811  0.56970478  0.34445692
   0.38073853  0.06966946  0.49394332
   0.88073722  0.06966947  0.49393816
   0.13078974  0.56967137  0.48577220
   0.63079031  0.56967136  0.48577070
Direct configuration=    15
   0.13081166  0.56969810  0.00000000
   0.63081166  0.56969810  0.00000000
   0.38081166  0.26151810  0.05551494
   0.88081166  0.26151810  0.05551494
   0.38081166  0.87787810  0.05551494
   0.88081166  0.87787810  0.05551494
   0.13081166  0.56969810  0.11102988
   0.63081166  0.56969810  0.11102988
   0.13081166  0.06969810  0.14470582
   0.63081166  0.06969810  0.14470582
   0.38081166  0.37787810  0.20022076
   0.88081166  0.37787810  0.20022076
   0.38081166  0.76151810  0.20022076
   0.88081166  0.76151810  0.20022076
   0.13081166  0.06969810  0.25573570
   0.63081166  0.06969810  0.25573570
   0.13080264  0.56970774  0.28912365
   0.63080637  0.56970773  0.28912369
   0.38081342  0.26020680  0.34544787
   0.88081426  0.26020890  0.34544764
   0.38079211  0.87920482  0.34544532
   0.88079303  0.87920271  0.34544509
   0.13079743  0.56970205  0.39902729
   0.63079886  0.56970166  0.39902865
   0.13072599  0.06969245  0.43482917
   0.63071448  0.06969219  0.43482947
   0.38079557  0.38089043  0.49199816
   0.88079056  0.38089417  0.49199819
   0.38079797  0.75846969  0.49200005
   0.88079296  0.75846594  0.49200008
   0.13076795  0.06966326  0.54337666
   0.63074302  0.06966335  0.54337657
   0.13081166  0.06969810  0.05551494
   0.63081166  0.06969810  0.05551494
   0.38081166  0.56969810  0.05551494
   0.88081166  0.56969810  0.05551494
   0.38081166  0.06969810  0.20022076
   0.88081166  0.06969810  0.20022076
   0.13081166  0.56969810  0.20022076
   0.63081166  0.56969810  0.20022076
   0.13079976  0.06969803  0.34568526
   0.63079756  0.06969800  0.34568516
   0.38079699  0.56970457  0.34443703
   0.88079579  0.56970457  0.34443722
   0.38073953  0.06967130  0.49403011
   0.88073840  0.06967168  0.49402252
   0.13079319  0.56966818  0.48583257
   0.63079538  0.56966819  0.48583010
