  48  48   0   0
  0.1814474E+02  0.6223582E-09  0.6358720E-09  0.2200806E-08  0.1000000E-15
  1.000000000000000E-004
  CAR 
 RuO2_suf110                             
     11.29773888    -20.11140720  301      1.59918502      1.00000000
    -20.111  0.0000E+00  0.0000E+00  0.0000E+00  0.0000E+00
    -20.007  0.0000E+00  0.0000E+00  0.0000E+00  0.0000E+00
    -19.902  0.0000E+00  0.0000E+00  0.0000E+00  0.0000E+00
    -19.797  0.0000E+00  0.0000E+00  0.0000E+00  0.0000E+00
    -19.693  0.0000E+00  0.0000E+00  0.0000E+00  0.0000E+00
    -19.588  0.0000E+00  0.0000E+00  0.0000E+00  0.0000E+00
    -19.483  0.0000E+00  0.0000E+00  0.0000E+00  0.0000E+00
    -19.379  0.0000E+00  0.0000E+00  0.0000E+00  0.0000E+00
    -19.274  0.0000E+00  0.0000E+00  0.0000E+00  0.0000E+00
    -19.169  0.0000E+00  0.0000E+00  0.0000E+00  0.0000E+00
    -19.064  0.0000E+00  0.0000E+00  0.0000E+00  0.0000E+00
    -18.960  0.1574E-17  0.2195E-17  0.1648E-18  0.2299E-18
    -18.855  0.3808E-09  0.4706E-09  0.3987E-10  0.4927E-10
    -18.750  0.2019E-04  0.2223E-04  0.2114E-05  0.2327E-05
    -18.646  0.7946E-03  0.8199E-03  0.8531E-04  0.8816E-04
    -18.541  0.2737E-02  0.2802E-02  0.3718E-03  0.3815E-03
    -18.436  0.4327E-02  0.4346E-02  0.8249E-03  0.8365E-03
    -18.332  0.3490E-02  0.3528E-02  0.1190E-02  0.1206E-02
    -18.227  0.6626E-02  0.6897E-02  0.1884E-02  0.1928E-02
    -18.122  0.9022E-02  0.8646E-02  0.2829E-02  0.2833E-02
    -18.017  0.1059E-01  0.1119E-01  0.3937E-02  0.4005E-02
    -17.913  0.1891E-01  0.1832E-01  0.5917E-02  0.5922E-02
    -17.808  0.1379E-01  0.1341E-01  0.7361E-02  0.7326E-02
    -17.703  0.1774E-01  0.1762E-01  0.9218E-02  0.9171E-02
    -17.599  0.2647E-01  0.2669E-01  0.1199E-01  0.1197E-01
    -17.494  0.3317E-01  0.2877E-01  0.1546E-01  0.1498E-01
    -17.389  0.2600E-01  0.2920E-01  0.1818E-01  0.1804E-01
    -17.285  0.2699E-01  0.2782E-01  0.2101E-01  0.2095E-01
    -17.180  0.3643E-01  0.3448E-01  0.2482E-01  0.2456E-01
    -17.075  0.3987E-01  0.4063E-01  0.2900E-01  0.2881E-01
    -16.970  0.3556E-01  0.3550E-01  0.3272E-01  0.3253E-01
    -16.866  0.1551E-01  0.1749E-01  0.3435E-01  0.3436E-01
    -16.761  0.1328E-01  0.4720E-02  0.3574E-01  0.3485E-01
    -16.656  0.7780E-02  0.1354E-02  0.3655E-01  0.3499E-01
    -16.552  0.4191E-02  0.1318E-02  0.3699E-01  0.3513E-01
    -16.447  0.4538E-02  0.1211E-01  0.3746E-01  0.3640E-01
    -16.342  0.3457E-03  0.5389E-02  0.3750E-01  0.3696E-01
    -16.238  0.4733E-07  0.4827E-02  0.3750E-01  0.3747E-01
    -16.133  0.7007E-06  0.2878E-03  0.3750E-01  0.3750E-01
    -16.028  0.2098E-02  0.2930E-07  0.3772E-01  0.3750E-01
    -15.924  0.1714E-01  0.1442E-09  0.3951E-01  0.3750E-01
    -15.819  0.4612E-02  0.4239E-04  0.4000E-01  0.3750E-01
    -15.714  0.2325E-04  0.8330E-02  0.4000E-01  0.3838E-01
    -15.609  0.1026E-09  0.1496E-01  0.4000E-01  0.3994E-01
    -15.505  0.0000E+00  0.5466E-03  0.4000E-01  0.4000E-01
    -15.400  0.0000E+00  0.5230E-07  0.4000E-01  0.4000E-01
    -15.295  0.0000E+00  0.1774E-14  0.4000E-01  0.4000E-01
    -15.191  0.0000E+00  0.0000E+00  0.4000E-01  0.4000E-01
    -15.086  0.0000E+00  0.0000E+00  0.4000E-01  0.4000E-01
    -14.981  0.0000E+00  0.0000E+00  0.4000E-01  0.4000E-01
    -14.877  0.0000E+00  0.0000E+00  0.4000E-01  0.4000E-01
    -14.772  0.0000E+00  0.0000E+00  0.4000E-01  0.4000E-01
    -14.667  0.0000E+00  0.0000E+00  0.4000E-01  0.4000E-01
    -14.562  0.0000E+00  0.0000E+00  0.4000E-01  0.4000E-01
    -14.458  0.0000E+00  0.0000E+00  0.4000E-01  0.4000E-01
    -14.353  0.0000E+00  0.0000E+00  0.4000E-01  0.4000E-01
    -14.248  0.0000E+00  0.0000E+00  0.4000E-01  0.4000E-01
    -14.144  0.0000E+00  0.0000E+00  0.4000E-01  0.4000E-01
    -14.039  0.0000E+00  0.0000E+00  0.4000E-01  0.4000E-01
    -13.934  0.0000E+00  0.0000E+00  0.4000E-01  0.4000E-01
    -13.830  0.0000E+00  0.0000E+00  0.4000E-01  0.4000E-01
    -13.725  0.0000E+00  0.0000E+00  0.4000E-01  0.4000E-01
    -13.620  0.0000E+00  0.0000E+00  0.4000E-01  0.4000E-01
    -13.515  0.0000E+00  0.0000E+00  0.4000E-01  0.4000E-01
    -13.411  0.0000E+00  0.0000E+00  0.4000E-01  0.4000E-01
    -13.306  0.0000E+00  0.0000E+00  0.4000E-01  0.4000E-01
    -13.201  0.0000E+00  0.0000E+00  0.4000E-01  0.4000E-01
    -13.097  0.0000E+00  0.0000E+00  0.4000E-01  0.4000E-01
    -12.992  0.0000E+00  0.0000E+00  0.4000E-01  0.4000E-01
    -12.887  0.0000E+00  0.0000E+00  0.4000E-01  0.4000E-01
    -12.783  0.0000E+00  0.0000E+00  0.4000E-01  0.4000E-01
    -12.678  0.0000E+00  0.0000E+00  0.4000E-01  0.4000E-01
    -12.573  0.0000E+00  0.0000E+00  0.4000E-01  0.4000E-01
    -12.469  0.0000E+00  0.0000E+00  0.4000E-01  0.4000E-01
    -12.364  0.0000E+00  0.0000E+00  0.4000E-01  0.4000E-01
    -12.259  0.0000E+00  0.0000E+00  0.4000E-01  0.4000E-01
    -12.154  0.0000E+00  0.0000E+00  0.4000E-01  0.4000E-01
    -12.050  0.0000E+00  0.0000E+00  0.4000E-01  0.4000E-01
    -11.945  0.0000E+00  0.0000E+00  0.4000E-01  0.4000E-01
    -11.840  0.0000E+00  0.0000E+00  0.4000E-01  0.4000E-01
    -11.736  0.0000E+00  0.0000E+00  0.4000E-01  0.4000E-01
    -11.631  0.0000E+00  0.0000E+00  0.4000E-01  0.4000E-01
    -11.526  0.0000E+00  0.0000E+00  0.4000E-01  0.4000E-01
    -11.422  0.0000E+00  0.0000E+00  0.4000E-01  0.4000E-01
    -11.317  0.0000E+00  0.0000E+00  0.4000E-01  0.4000E-01
    -11.212  0.0000E+00  0.0000E+00  0.4000E-01  0.4000E-01
    -11.107  0.0000E+00  0.0000E+00  0.4000E-01  0.4000E-01
    -11.003  0.0000E+00  0.0000E+00  0.4000E-01  0.4000E-01
    -10.898  0.0000E+00  0.0000E+00  0.4000E-01  0.4000E-01
    -10.793  0.0000E+00  0.0000E+00  0.4000E-01  0.4000E-01
    -10.689  0.0000E+00  0.0000E+00  0.4000E-01  0.4000E-01
    -10.584  0.0000E+00  0.0000E+00  0.4000E-01  0.4000E-01
    -10.479  0.0000E+00  0.0000E+00  0.4000E-01  0.4000E-01
    -10.375  0.0000E+00  0.0000E+00  0.4000E-01  0.4000E-01
    -10.270  0.0000E+00  0.0000E+00  0.4000E-01  0.4000E-01
    -10.165  0.0000E+00  0.0000E+00  0.4000E-01  0.4000E-01
    -10.060  0.0000E+00  0.0000E+00  0.4000E-01  0.4000E-01
     -9.956  0.0000E+00  0.0000E+00  0.4000E-01  0.4000E-01
     -9.851  0.0000E+00  0.0000E+00  0.4000E-01  0.4000E-01
     -9.746  0.0000E+00  0.0000E+00  0.4000E-01  0.4000E-01
     -9.642  0.0000E+00  0.0000E+00  0.4000E-01  0.4000E-01
     -9.537  0.0000E+00  0.0000E+00  0.4000E-01  0.4000E-01
     -9.432  0.0000E+00  0.0000E+00  0.4000E-01  0.4000E-01
     -9.328  0.0000E+00  0.0000E+00  0.4000E-01  0.4000E-01
     -9.223  0.0000E+00  0.0000E+00  0.4000E-01  0.4000E-01
     -9.118  0.0000E+00  0.0000E+00  0.4000E-01  0.4000E-01
     -9.014  0.0000E+00  0.0000E+00  0.4000E-01  0.4000E-01
     -8.909  0.0000E+00  0.0000E+00  0.4000E-01  0.4000E-01
     -8.804  0.0000E+00  0.0000E+00  0.4000E-01  0.4000E-01
     -8.699  0.0000E+00  0.0000E+00  0.4000E-01  0.4000E-01
     -8.595  0.0000E+00  0.0000E+00  0.4000E-01  0.4000E-01
     -8.490  0.0000E+00  0.0000E+00  0.4000E-01  0.4000E-01
     -8.385  0.0000E+00  0.0000E+00  0.4000E-01  0.4000E-01
     -8.281  0.0000E+00  0.0000E+00  0.4000E-01  0.4000E-01
     -8.176  0.0000E+00  0.0000E+00  0.4000E-01  0.4000E-01
     -8.071  0.0000E+00  0.0000E+00  0.4000E-01  0.4000E-01
     -7.967  0.0000E+00  0.0000E+00  0.4000E-01  0.4000E-01
     -7.862  0.0000E+00  0.0000E+00  0.4000E-01  0.4000E-01
     -7.757  0.0000E+00  0.0000E+00  0.4000E-01  0.4000E-01
     -7.652  0.0000E+00  0.0000E+00  0.4000E-01  0.4000E-01
     -7.548  0.0000E+00  0.0000E+00  0.4000E-01  0.4000E-01
     -7.443  0.0000E+00  0.0000E+00  0.4000E-01  0.4000E-01
     -7.338  0.0000E+00  0.0000E+00  0.4000E-01  0.4000E-01
     -7.234  0.0000E+00  0.0000E+00  0.4000E-01  0.4000E-01
     -7.129  0.3234E-12  0.1747E-13  0.4000E-01  0.4000E-01
     -7.024  0.5670E-06  0.1102E-06  0.4000E-01  0.4000E-01
     -6.920  0.3166E-03  0.1927E-03  0.4003E-01  0.4002E-01
     -6.815  0.1792E-02  0.1602E-02  0.4022E-01  0.4019E-01
     -6.710  0.4932E-02  0.4819E-02  0.4074E-01  0.4069E-01
     -6.605  0.6211E-02  0.5963E-02  0.4139E-01  0.4132E-01
     -6.501  0.5597E-02  0.5911E-02  0.4197E-01  0.4194E-01
     -6.396  0.4079E-02  0.4144E-02  0.4240E-01  0.4237E-01
     -6.291  0.1102E-01  0.1005E-01  0.4355E-01  0.4342E-01
     -6.187  0.1132E-01  0.1115E-01  0.4474E-01  0.4459E-01
     -6.082  0.1012E-01  0.1139E-01  0.4580E-01  0.4578E-01
     -5.977  0.3478E-02  0.2725E-02  0.4616E-01  0.4607E-01
     -5.873  0.1458E-01  0.1301E-01  0.4769E-01  0.4743E-01
     -5.768  0.1662E-01  0.1699E-01  0.4943E-01  0.4921E-01
     -5.663  0.2656E-01  0.2204E-01  0.5221E-01  0.5152E-01
     -5.559  0.3640E-01  0.3061E-01  0.5602E-01  0.5472E-01
     -5.454  0.2714E-01  0.2881E-01  0.5886E-01  0.5774E-01
     -5.349  0.3811E-01  0.4304E-01  0.6285E-01  0.6224E-01
     -5.244  0.5193E-01  0.4677E-01  0.6829E-01  0.6714E-01
     -5.140  0.3865E-01  0.4590E-01  0.7234E-01  0.7194E-01
     -5.035  0.2063E-01  0.2146E-01  0.7450E-01  0.7419E-01
     -4.930  0.2161E-01  0.1828E-01  0.7676E-01  0.7611E-01
     -4.826  0.1693E-01  0.1459E-01  0.7853E-01  0.7763E-01
     -4.721  0.1896E-01  0.1659E-01  0.8052E-01  0.7937E-01
     -4.616  0.7739E-02  0.1542E-01  0.8133E-01  0.8098E-01
     -4.512  0.1070E-01  0.1298E-01  0.8245E-01  0.8234E-01
     -4.407  0.8714E-02  0.8316E-02  0.8336E-01  0.8322E-01
     -4.302  0.1260E-01  0.8595E-02  0.8468E-01  0.8411E-01
     -4.197  0.1742E-01  0.1719E-01  0.8650E-01  0.8592E-01
     -4.093  0.1846E-01  0.1484E-01  0.8844E-01  0.8747E-01
     -3.988  0.2396E-01  0.2454E-01  0.9094E-01  0.9004E-01
     -3.883  0.1629E-01  0.1726E-01  0.9265E-01  0.9185E-01
     -3.779  0.1491E-01  0.1645E-01  0.9421E-01  0.9357E-01
     -3.674  0.1508E-01  0.1758E-01  0.9579E-01  0.9541E-01
     -3.569  0.1726E-01  0.1517E-01  0.9760E-01  0.9700E-01
     -3.465  0.2371E-01  0.2460E-01  0.1001E+00  0.9957E-01
     -3.360  0.1889E-01  0.1814E-01  0.1021E+00  0.1015E+00
     -3.255  0.2607E-01  0.2136E-01  0.1048E+00  0.1037E+00
     -3.150  0.2769E-01  0.3052E-01  0.1077E+00  0.1069E+00
     -3.046  0.2349E-01  0.2211E-01  0.1101E+00  0.1092E+00
     -2.941  0.2738E-01  0.2382E-01  0.1130E+00  0.1117E+00
     -2.836  0.3094E-01  0.3569E-01  0.1163E+00  0.1154E+00
     -2.732  0.3045E-01  0.3086E-01  0.1194E+00  0.1187E+00
     -2.627  0.2563E-01  0.2737E-01  0.1221E+00  0.1215E+00
     -2.522  0.2770E-01  0.2649E-01  0.1250E+00  0.1243E+00
     -2.418  0.2460E-01  0.2385E-01  0.1276E+00  0.1268E+00
     -2.313  0.2038E-01  0.2095E-01  0.1297E+00  0.1290E+00
     -2.208  0.1972E-01  0.2273E-01  0.1318E+00  0.1314E+00
     -2.103  0.2198E-01  0.1733E-01  0.1341E+00  0.1332E+00
     -1.999  0.2098E-01  0.1763E-01  0.1363E+00  0.1350E+00
     -1.894  0.1739E-01  0.1483E-01  0.1381E+00  0.1366E+00
     -1.789  0.2601E-01  0.2402E-01  0.1408E+00  0.1391E+00
     -1.685  0.1614E-01  0.1779E-01  0.1425E+00  0.1410E+00
     -1.580  0.2469E-01  0.2218E-01  0.1451E+00  0.1433E+00
     -1.475  0.1843E-01  0.2051E-01  0.1470E+00  0.1454E+00
     -1.371  0.1676E-01  0.1532E-01  0.1488E+00  0.1471E+00
     -1.266  0.1432E-01  0.1877E-01  0.1503E+00  0.1490E+00
     -1.161  0.1908E-01  0.2099E-01  0.1523E+00  0.1512E+00
     -1.057  0.2060E-01  0.1548E-01  0.1545E+00  0.1528E+00
     -0.952  0.1857E-01  0.1263E-01  0.1564E+00  0.1542E+00
     -0.847  0.1014E-01  0.1900E-01  0.1575E+00  0.1561E+00
     -0.742  0.7815E-02  0.1138E-01  0.1583E+00  0.1573E+00
     -0.638  0.8378E-02  0.9528E-02  0.1592E+00  0.1583E+00
     -0.533  0.3867E-02  0.8316E-02  0.1596E+00  0.1592E+00
     -0.428  0.2773E-02  0.4961E-02  0.1598E+00  0.1597E+00
     -0.324  0.1933E-02  0.2303E-02  0.1601E+00  0.1600E+00
     -0.219  0.1460E-02  0.3117E-03  0.1602E+00  0.1600E+00
     -0.114  0.2498E-02  0.7888E-03  0.1605E+00  0.1601E+00
     -0.010  0.2327E-02  0.2451E-02  0.1607E+00  0.1603E+00
      0.095  0.1131E-01  0.1008E-01  0.1619E+00  0.1614E+00
      0.200  0.1934E-01  0.1819E-01  0.1639E+00  0.1633E+00
      0.305  0.1695E-01  0.1652E-01  0.1657E+00  0.1650E+00
      0.409  0.1331E-01  0.1430E-01  0.1671E+00  0.1665E+00
      0.514  0.2603E-01  0.2086E-01  0.1698E+00  0.1687E+00
      0.619  0.2169E-01  0.2227E-01  0.1721E+00  0.1710E+00
      0.723  0.2640E-01  0.1753E-01  0.1748E+00  0.1729E+00
      0.828  0.3447E-01  0.3195E-01  0.1785E+00  0.1762E+00
      0.933  0.3631E-01  0.4311E-01  0.1823E+00  0.1807E+00
      1.037  0.3026E-01  0.3219E-01  0.1854E+00  0.1841E+00
      1.142  0.3337E-01  0.3134E-01  0.1889E+00  0.1874E+00
      1.247  0.3555E-01  0.3105E-01  0.1926E+00  0.1906E+00
      1.352  0.3569E-01  0.2751E-01  0.1964E+00  0.1935E+00
      1.456  0.2373E-01  0.2262E-01  0.1989E+00  0.1959E+00
      1.561  0.1423E-01  0.2006E-01  0.2004E+00  0.1980E+00
      1.666  0.2345E-01  0.1830E-01  0.2028E+00  0.1999E+00
      1.770  0.1747E-01  0.1599E-01  0.2046E+00  0.2016E+00
      1.875  0.9944E-02  0.1943E-01  0.2057E+00  0.2036E+00
      1.980  0.1789E-01  0.1717E-01  0.2076E+00  0.2054E+00
      2.084  0.1966E-01  0.2977E-01  0.2096E+00  0.2085E+00
      2.189  0.1701E-01  0.1875E-01  0.2114E+00  0.2105E+00
      2.294  0.1705E-01  0.1936E-01  0.2132E+00  0.2125E+00
      2.398  0.1883E-01  0.1669E-01  0.2151E+00  0.2143E+00
      2.503  0.2101E-01  0.2282E-01  0.2173E+00  0.2167E+00
      2.608  0.1155E-01  0.1637E-01  0.2186E+00  0.2184E+00
      2.713  0.1139E-01  0.1103E-01  0.2197E+00  0.2195E+00
      2.817  0.1166E-01  0.1406E-01  0.2210E+00  0.2210E+00
      2.922  0.1062E-01  0.1171E-01  0.2221E+00  0.2222E+00
      3.027  0.1024E-01  0.1021E-01  0.2232E+00  0.2233E+00
      3.131  0.9047E-02  0.8871E-02  0.2241E+00  0.2242E+00
      3.236  0.5185E-02  0.4996E-02  0.2246E+00  0.2247E+00
      3.341  0.3422E-02  0.2575E-02  0.2250E+00  0.2250E+00
      3.445  0.1987E-02  0.1799E-02  0.2252E+00  0.2252E+00
      3.550  0.5219E-02  0.3365E-02  0.2258E+00  0.2256E+00
      3.655  0.5397E-02  0.4299E-02  0.2263E+00  0.2260E+00
      3.760  0.5996E-02  0.4458E-02  0.2269E+00  0.2265E+00
      3.864  0.7042E-02  0.7651E-02  0.2277E+00  0.2273E+00
      3.969  0.1036E-01  0.9813E-02  0.2288E+00  0.2283E+00
      4.074  0.1132E-01  0.1211E-01  0.2300E+00  0.2296E+00
      4.178  0.7858E-02  0.1033E-01  0.2308E+00  0.2306E+00
      4.283  0.7655E-02  0.6354E-02  0.2316E+00  0.2313E+00
      4.388  0.5953E-02  0.4600E-02  0.2322E+00  0.2318E+00
      4.492  0.5732E-02  0.5830E-02  0.2328E+00  0.2324E+00
      4.597  0.1827E-01  0.1300E-01  0.2347E+00  0.2338E+00
      4.702  0.1698E-01  0.1595E-01  0.2365E+00  0.2354E+00
      4.807  0.1183E-01  0.1531E-01  0.2377E+00  0.2370E+00
      4.911  0.1048E-01  0.9214E-02  0.2388E+00  0.2380E+00
      5.016  0.1409E-01  0.8512E-02  0.2403E+00  0.2389E+00
      5.121  0.1101E-01  0.1823E-01  0.2415E+00  0.2408E+00
      5.225  0.1910E-01  0.1723E-01  0.2435E+00  0.2426E+00
      5.330  0.8136E-02  0.1142E-01  0.2443E+00  0.2438E+00
      5.435  0.7204E-02  0.9299E-02  0.2451E+00  0.2448E+00
      5.539  0.1364E-01  0.1078E-01  0.2465E+00  0.2459E+00
      5.644  0.2046E-01  0.1173E-01  0.2486E+00  0.2471E+00
      5.749  0.1716E-01  0.2384E-01  0.2504E+00  0.2496E+00
      5.853  0.1547E-01  0.2013E-01  0.2520E+00  0.2517E+00
      5.958  0.2088E-01  0.1432E-01  0.2542E+00  0.2532E+00
      6.063  0.1831E-01  0.1803E-01  0.2562E+00  0.2551E+00
      6.168  0.9743E-02  0.1583E-01  0.2572E+00  0.2568E+00
      6.272  0.7602E-02  0.8421E-02  0.2580E+00  0.2577E+00
      6.377  0.9023E-02  0.1080E-01  0.2589E+00  0.2588E+00
      6.482  0.6833E-02  0.7919E-02  0.2596E+00  0.2596E+00
      6.586  0.3250E-02  0.3415E-02  0.2600E+00  0.2600E+00
      6.691  0.1671E-02  0.1998E-02  0.2601E+00  0.2602E+00
      6.796  0.9472E-03  0.6581E-03  0.2602E+00  0.2603E+00
      6.900  0.2335E-02  0.4112E-02  0.2605E+00  0.2607E+00
      7.005  0.6567E-02  0.6484E-02  0.2612E+00  0.2614E+00
      7.110  0.3890E-02  0.3307E-02  0.2616E+00  0.2617E+00
      7.215  0.1937E-02  0.1585E-02  0.2618E+00  0.2619E+00
      7.319  0.1257E-02  0.1226E-02  0.2619E+00  0.2620E+00
      7.424  0.1846E-02  0.3130E-02  0.2621E+00  0.2623E+00
      7.529  0.3787E-02  0.3723E-02  0.2625E+00  0.2627E+00
      7.633  0.3281E-02  0.1963E-02  0.2629E+00  0.2629E+00
      7.738  0.1220E-02  0.3098E-02  0.2630E+00  0.2633E+00
      7.843  0.2531E-02  0.1089E-02  0.2632E+00  0.2634E+00
      7.947  0.1049E-02  0.2863E-02  0.2634E+00  0.2637E+00
      8.052  0.5933E-03  0.1711E-02  0.2634E+00  0.2638E+00
      8.157  0.3366E-02  0.3565E-02  0.2638E+00  0.2642E+00
      8.262  0.2429E-02  0.1995E-02  0.2640E+00  0.2644E+00
      8.366  0.3826E-02  0.2779E-02  0.2644E+00  0.2647E+00
      8.471  0.5725E-02  0.5748E-02  0.2650E+00  0.2653E+00
      8.576  0.4901E-02  0.5972E-02  0.2655E+00  0.2659E+00
      8.680  0.4476E-02  0.5055E-02  0.2660E+00  0.2665E+00
      8.785  0.5142E-02  0.9757E-02  0.2665E+00  0.2675E+00
      8.890  0.6328E-02  0.5074E-02  0.2672E+00  0.2680E+00
      8.994  0.4494E-02  0.1852E-02  0.2677E+00  0.2682E+00
      9.099  0.4834E-02  0.3825E-02  0.2682E+00  0.2686E+00
      9.204  0.3114E-02  0.2096E-02  0.2685E+00  0.2688E+00
      9.308  0.2459E-02  0.2223E-02  0.2688E+00  0.2691E+00
      9.413  0.4826E-02  0.3717E-02  0.2693E+00  0.2695E+00
      9.518  0.3539E-02  0.2388E-02  0.2696E+00  0.2697E+00
      9.623  0.1155E-02  0.1151E-02  0.2698E+00  0.2698E+00
      9.727  0.7753E-03  0.2719E-03  0.2698E+00  0.2699E+00
      9.832  0.2227E-03  0.1254E-02  0.2699E+00  0.2700E+00
      9.937  0.1238E-02  0.5241E-04  0.2700E+00  0.2700E+00
     10.041  0.4440E-04  0.1363E-08  0.2700E+00  0.2700E+00
     10.146  0.9413E-09  0.7953E-17  0.2700E+00  0.2700E+00
     10.251  0.4308E-17  0.0000E+00  0.2700E+00  0.2700E+00
     10.355  0.0000E+00  0.0000E+00  0.2700E+00  0.2700E+00
     10.460  0.0000E+00  0.0000E+00  0.2700E+00  0.2700E+00
     10.565  0.0000E+00  0.0000E+00  0.2700E+00  0.2700E+00
     10.670  0.0000E+00  0.0000E+00  0.2700E+00  0.2700E+00
     10.774  0.0000E+00  0.0000E+00  0.2700E+00  0.2700E+00
     10.879  0.0000E+00  0.0000E+00  0.2700E+00  0.2700E+00
     10.984  0.0000E+00  0.0000E+00  0.2700E+00  0.2700E+00
     11.088  0.0000E+00  0.0000E+00  0.2700E+00  0.2700E+00
     11.193  0.0000E+00  0.0000E+00  0.2700E+00  0.2700E+00
     11.298  0.0000E+00  0.0000E+00  0.2700E+00  0.2700E+00
