<?xml version="1.0" encoding="ISO-8859-1"?>
<modeling>
 <generator>
  <i name="program" type="string">vasp </i>
  <i name="version" type="string">5.4.1  </i>
  <i name="subversion" type="string">08Jul2015 (build Apr 24 2014 00:09:29) complex standard with constrain (TS)     parallel </i>
  <i name="platform" type="string">IBM of Center for Computational Chemistry </i>
  <i name="date" type="string">2017 10 23 </i>
  <i name="time" type="string">07:29:13 </i>
 </generator>
 <incar>
  <i type="string" name="SYSTEM"> RuO2_suf110</i>
  <i type="int" name="ISTART">     0</i>
  <i type="string" name="PREC">accurate       ! [low/medium/high/norma</i>
  <i type="string" name="ALGO">Fast</i>
  <i type="int" name="ISPIN">     2</i>
  <i type="int" name="NELM">   300</i>
  <i type="int" name="NELMIN">     3</i>
  <i type="int" name="IBRION">     2</i>
  <i name="EDIFFG">     -0.05000000</i>
  <i type="int" name="NSW">   800</i>
  <i type="int" name="ISIF">     2</i>
  <i type="int" name="ISYM">     0</i>
  <i name="ENCUT">    500.00000000</i>
  <i name="POTIM">      0.10000000</i>
  <i type="string" name="LREAL"> A    ! aproximace, T zpomaluje, ale pre</i>
  <i type="int" name="ISMEAR">     0</i>
  <i name="SIGMA">      0.05000000</i>
  <i type="int" name="NWRITE">     2</i>
  <i type="logical" name="LWAVE"> F  </i>
  <i type="logical" name="LCHARG"> F  </i>
  <v type="int" name="KPOINT_BSE">    -1     0     0     0</v>
  <i type="int" name="NELM">   300</i>
 </incar>
 <kpoints>
  <generation param="Gamma">
   <v type="int" name="divisions">       4        4        1 </v>
   <v name="usershift">      0.00000000       0.00000000       0.00000000 </v>
   <v name="genvec1">      0.25000000       0.00000000       0.00000000 </v>
   <v name="genvec2">      0.00000000       0.25000000       0.00000000 </v>
   <v name="genvec3">      0.00000000       0.00000000       1.00000000 </v>
   <v name="shift">      0.00000000       0.00000000       0.00000000 </v>
  </generation>
  <varray name="kpointlist" >
   <v>       0.00000000       0.00000000       0.00000000 </v>
   <v>       0.25000000       0.00000000       0.00000000 </v>
   <v>       0.50000000       0.00000000       0.00000000 </v>
   <v>       0.00000000       0.25000000       0.00000000 </v>
   <v>       0.25000000       0.25000000       0.00000000 </v>
   <v>       0.50000000       0.25000000       0.00000000 </v>
   <v>      -0.25000000       0.25000000       0.00000000 </v>
   <v>       0.00000000       0.50000000       0.00000000 </v>
   <v>       0.25000000       0.50000000       0.00000000 </v>
   <v>       0.50000000       0.50000000       0.00000000 </v>
  </varray>
  <varray name="weights" >
   <v>       0.06250000 </v>
   <v>       0.12500000 </v>
   <v>       0.06250000 </v>
   <v>       0.12500000 </v>
   <v>       0.12500000 </v>
   <v>       0.12500000 </v>
   <v>       0.12500000 </v>
   <v>       0.06250000 </v>
   <v>       0.12500000 </v>
   <v>       0.06250000 </v>
  </varray>
 </kpoints>
 <parameters>
  <separator name="general" >
   <i type="string" name="SYSTEM">RuO2_suf110</i>
   <i type="logical" name="LCOMPAT"> F  </i>
  </separator>
  <separator name="electronic" >
   <i type="string" name="PREC">accura</i>
   <i name="ENMAX">    500.00000000</i>
   <i name="ENAUG">    605.39200000</i>
   <i name="EDIFF">      0.00010000</i>
   <i type="int" name="IALGO">    68</i>
   <i type="int" name="IWAVPR">    11</i>
   <i type="int" name="NBANDS">   216</i>
   <i name="NELECT">    320.00000000</i>
   <i type="int" name="TURBO">     0</i>
   <i type="int" name="IRESTART">     0</i>
   <i type="int" name="NREBOOT">     0</i>
   <i type="int" name="NMIN">     0</i>
   <i name="EREF">      0.00000000</i>
   <separator name="electronic smearing" >
    <i type="int" name="ISMEAR">     0</i>
    <i name="SIGMA">      0.05000000</i>
    <i name="KSPACING">      0.50000000</i>
    <i type="logical" name="KGAMMA"> T  </i>
   </separator>
   <separator name="electronic projectors" >
    <i type="logical" name="LREAL"> T  </i>
    <v name="ROPT">     -0.00025000     -0.00025000</v>
    <i type="int" name="LMAXPAW">  -100</i>
    <i type="int" name="LMAXMIX">     2</i>
    <i type="logical" name="NLSPLINE"> F  </i>
   </separator>
   <separator name="electronic startup" >
    <i type="int" name="ISTART">     0</i>
    <i type="int" name="ICHARG">     2</i>
    <i type="int" name="INIWAV">     1</i>
   </separator>
   <separator name="electronic spin" >
    <i type="int" name="ISPIN">     2</i>
    <i type="logical" name="LNONCOLLINEAR"> F  </i>
    <v name="MAGMOM">      1.00000000      1.00000000      1.00000000      1.00000000      1.00000000      1.00000000      1.00000000      1.00000000      1.00000000      1.00000000      1.00000000      1.00000000      1.00000000      1.00000000      1.00000000      1.00000000      1.00000000      1.00000000      1.00000000      1.00000000
      1.00000000      1.00000000      1.00000000      1.00000000      1.00000000      1.00000000      1.00000000      1.00000000      1.00000000      1.00000000      1.00000000      1.00000000      1.00000000      1.00000000      1.00000000      1.00000000      1.00000000      1.00000000      1.00000000      1.00000000
      1.00000000      1.00000000      1.00000000      1.00000000      1.00000000      1.00000000      1.00000000      1.00000000</v>
    <i name="NUPDOWN">     -1.00000000</i>
    <i type="logical" name="LSORBIT"> F  </i>
    <v name="SAXIS">      0.00000000      0.00000000      1.00000000</v>
    <i type="logical" name="LSPIRAL"> F  </i>
    <v name="QSPIRAL">      0.00000000      0.00000000      0.00000000</v>
    <i type="logical" name="LZEROZ"> F  </i>
   </separator>
   <separator name="electronic exchange-correlation" >
    <i type="logical" name="LASPH"> F  </i>
    <i type="logical" name="LMETAGGA"> F  </i>
   </separator>
   <separator name="electronic convergence" >
    <i type="int" name="NELM">   300</i>
    <i type="int" name="NELMDL">    -5</i>
    <i type="int" name="NELMIN">     3</i>
    <i name="ENINI">    500.00000000</i>
    <separator name="electronic convergence detail" >
     <i type="logical" name="LDIAG"> T  </i>
     <i type="logical" name="LSUBROT"> F  </i>
     <i name="WEIMIN">      0.00100000</i>
     <i name="EBREAK">      0.00000012</i>
     <i name="DEPER">      0.30000000</i>
     <i type="int" name="NRMM">     4</i>
     <i name="TIME">      0.40000000</i>
    </separator>
   </separator>
   <separator name="electronic mixer" >
    <i name="AMIX">      0.40000000</i>
    <i name="BMIX">      1.00000000</i>
    <i name="AMIN">      0.10000000</i>
    <i name="AMIX_MAG">      1.60000000</i>
    <i name="BMIX_MAG">      1.00000000</i>
    <separator name="electronic mixer details" >
     <i type="int" name="IMIX">     4</i>
     <i type="logical" name="MIXFIRST"> F  </i>
     <i type="int" name="MAXMIX">   -45</i>
     <i name="WC">    100.00000000</i>
     <i type="int" name="INIMIX">     1</i>
     <i type="int" name="MIXPRE">     1</i>
     <i type="int" name="MREMOVE">     5</i>
    </separator>
   </separator>
   <separator name="electronic dipolcorrection" >
    <i type="logical" name="LDIPOL"> F  </i>
    <i type="logical" name="LMONO"> F  </i>
    <i type="int" name="IDIPOL">     0</i>
    <i name="EPSILON">      1.00000000</i>
    <v name="DIPOL">   -100.00000000   -100.00000000   -100.00000000</v>
    <i name="EFIELD">      0.00000000</i>
   </separator>
  </separator>
  <separator name="grids" >
   <i type="int" name="NGX">    48</i>
   <i type="int" name="NGY">    48</i>
   <i type="int" name="NGZ">   162</i>
   <i type="int" name="NGXF">    96</i>
   <i type="int" name="NGYF">    96</i>
   <i type="int" name="NGZF">   324</i>
   <i type="logical" name="ADDGRID"> F  </i>
  </separator>
  <separator name="ionic" >
   <i type="int" name="NSW">   800</i>
   <i type="int" name="IBRION">     2</i>
   <i type="int" name="ISIF">     2</i>
   <i name="PSTRESS">      0.00000000</i>
   <i name="EDIFFG">     -0.05000000</i>
   <i type="int" name="NFREE">     1</i>
   <i name="POTIM">      0.10000000</i>
   <i name="SMASS">     -3.00000000</i>
   <i name="SCALEE">      1.00000000</i>
  </separator>
  <separator name="ionic md" >
   <i name="TEBEG">      0.00010000</i>
   <i name="TEEND">      0.00010000</i>
   <i type="int" name="NBLOCK">     1</i>
   <i type="int" name="KBLOCK">   800</i>
   <i type="int" name="NPACO">   256</i>
   <i name="APACO">     16.00000000</i>
  </separator>
  <separator name="symmetry" >
   <i type="int" name="ISYM">     0</i>
   <i name="SYMPREC">      0.00001000</i>
  </separator>
  <separator name="dos" >
   <i type="logical" name="LORBIT"> F  </i>
   <v name="RWIGS">     -1.00000000     -1.00000000</v>
   <i type="int" name="NEDOS">   301</i>
   <i name="EMIN">     10.00000000</i>
   <i name="EMAX">    -10.00000000</i>
   <i name="EFERMI">      0.00000000</i>
  </separator>
  <separator name="writing" >
   <i type="int" name="NWRITE">     2</i>
   <i type="logical" name="LWAVE"> F  </i>
   <i type="logical" name="LCHARG"> F  </i>
   <i type="logical" name="LPARD"> F  </i>
   <i type="logical" name="LVTOT"> F  </i>
   <i type="logical" name="LVHAR"> F  </i>
   <i type="logical" name="LELF"> F  </i>
   <i type="logical" name="LOPTICS"> F  </i>
   <v name="STM">      0.00000000      0.00000000      0.00000000      0.00000000      0.00000000      0.00000000      0.00000000</v>
  </separator>
  <separator name="performance" >
   <i type="int" name="NPAR">     4</i>
   <i type="int" name="NSIM">     4</i>
   <i type="int" name="NBLK">    -1</i>
   <i type="logical" name="LPLANE"> T  </i>
   <i type="logical" name="LSCALAPACK"> T  </i>
   <i type="logical" name="LSCAAWARE"> F  </i>
   <i type="logical" name="LSCALU"> F  </i>
   <i type="logical" name="LASYNC"> F  </i>
   <i type="logical" name="LORBITALREAL"> F  </i>
  </separator>
  <separator name="miscellaneous" >
   <i type="int" name="IDIOT">     3</i>
   <i type="logical" name="LMUSIC"> F  </i>
   <v name="POMASS">     16.00000000    101.07000000</v>
   <v name="DARWINR">      0.00000000      0.00000000</v>
   <v name="DARWINV">      1.00000000      1.00000000</v>
   <i type="logical" name="LCORR"> T  </i>
  </separator>
  <i type="logical" name="GGA_COMPAT"> T  </i>
  <i type="logical" name="LBERRY"> F  </i>
  <i type="int" name="ICORELEVEL">     0</i>
  <i type="logical" name="LDAU"> F  </i>
  <i type="int" name="I_CONSTRAINED_M">     0</i>
  <separator name="electronic exchange-correlation" >
   <i type="string" name="GGA">--</i>
   <i type="int" name="VOSKOWN">     0</i>
   <i type="logical" name="LHFCALC"> F  </i>
   <i type="string" name="PRECFOCK"></i>
   <i type="logical" name="LSYMGRAD"> F  </i>
   <i type="logical" name="LHFONE"> F  </i>
   <i type="logical" name="LRHFCALC"> F  </i>
   <i type="logical" name="LTHOMAS"> F  </i>
   <i type="logical" name="LMODELHF"> F  </i>
   <i name="ENCUT4O">     -1.00000000</i>
   <i type="int" name="EXXOEP">     0</i>
   <i type="int" name="FOURORBIT">     0</i>
   <i name="AEXX">      0.00000000</i>
   <i name="HFALPHA">      0.00000000</i>
   <i name="MCALPHA">      0.00000000</i>
   <i name="ALDAX">      1.00000000</i>
   <i name="AGGAX">      1.00000000</i>
   <i name="ALDAC">      1.00000000</i>
   <i name="AGGAC">      1.00000000</i>
   <i type="int" name="NKREDX">     1</i>
   <i type="int" name="NKREDY">     1</i>
   <i type="int" name="NKREDZ">     1</i>
   <i type="logical" name="SHIFTRED"> F  </i>
   <i type="logical" name="ODDONLY"> F  </i>
   <i type="logical" name="EVENONLY"> F  </i>
   <i type="int" name="LMAXFOCK">     0</i>
   <i type="int" name="NMAXFOCKAE">     0</i>
   <i type="logical" name="LFOCKAEDFT"> F  </i>
   <i name="HFSCREEN">      0.00000000</i>
   <i name="HFSCREENC">      0.00000000</i>
   <i type="int" name="NBANDSGWLOW">     0</i>
  </separator>
  <separator name="vdW DFT" >
   <i type="logical" name="LUSE_VDW"> F  </i>
   <i name="Zab_VDW">     -0.84910000</i>
   <i name="PARAM1">      0.12340000</i>
   <i name="PARAM2">      1.00000000</i>
   <i name="PARAM3">      0.00000000</i>
  </separator>
  <separator name="model GW" >
   <i type="int" name="MODEL_GW">     0</i>
   <i name="MODEL_EPS0">     10.88684347</i>
   <i name="MODEL_ALPHA">      1.00000000</i>
  </separator>
  <separator name="linear response parameters" >
   <i type="logical" name="LEPSILON"> F  </i>
   <i type="logical" name="LRPA"> F  </i>
   <i type="logical" name="LNABLA"> F  </i>
   <i type="logical" name="LVEL"> F  </i>
   <i type="int" name="KINTER">     0</i>
   <i name="CSHIFT">      0.10000000</i>
   <i name="OMEGAMAX">     -1.00000000</i>
   <i name="DEG_THRESHOLD">      0.00200000</i>
  </separator>
  <separator name="orbital magnetization" >
   <i type="logical" name="NUCIND"> F  </i>
   <v name="MAGPOS">      0.00000000      0.00000000      0.00000000</v>
   <i type="logical" name="LNICSALL"> T  </i>
   <i type="logical" name="ORBITALMAG"> F  </i>
   <i type="logical" name="LMAGBLOCH"> F  </i>
   <i type="logical" name="LCHIMAG"> F  </i>
   <i type="logical" name="LGAUGE"> T  </i>
   <i type="int" name="MAGATOM">     0</i>
   <v name="MAGDIPOL">      0.00000000      0.00000000      0.00000000</v>
   <v name="AVECCONST">      0.00000000      0.00000000      0.00000000</v>
  </separator>
  <separator name="response functions" >
   <i type="logical" name="LADDER"> F  </i>
   <i type="logical" name="LFXC"> F  </i>
   <i type="logical" name="LHARTREE"> T  </i>
   <i type="int" name="IBSE">     0</i>
   <v type="int" name="KPOINT">    -1     0     0     0</v>
   <i type="logical" name="LTCTE"> F  </i>
   <i type="logical" name="LTETE"> F  </i>
   <i type="logical" name="LTRIPLET"> F  </i>
   <i type="logical" name="LFXCEPS"> F  </i>
   <i type="logical" name="LFXHEG"> F  </i>
   <i type="int" name="NATURALO">     0</i>
   <i type="logical" name="L2ORDER"> F  </i>
   <i type="logical" name="LUSEW"> F  </i>
   <i name="ENCUTGW">     -2.00000000</i>
   <i name="ENCUTGWSOFT">     -2.00000000</i>
   <i name="ENCUTLF">     -1.00000000</i>
   <i type="int" name="LMAXMP2">    -1</i>
   <i name="SCISSOR">      0.00000000</i>
   <i type="int" name="NOMEGA">     0</i>
   <i type="int" name="NOMEGAR">     0</i>
   <i type="int" name="NBANDSGW">    -1</i>
   <i type="int" name="NBANDSO">    -1</i>
   <i type="int" name="NBANDSV">    -1</i>
   <i type="int" name="NELM">   300</i>
   <i type="int" name="NELMHF">     1</i>
   <i type="int" name="DIM">     3</i>
   <i type="int" name="ANTIRES">     0</i>
   <i name="OMEGAMAX">    -30.00000000</i>
   <i name="OMEGAMIN">    -30.00000000</i>
   <i name="OMEGATL">   -200.00000000</i>
   <i type="int" name="OMEGAGRID">     0</i>
   <i name="CSHIFT">     -0.10000000</i>
   <i type="logical" name="SELFENERGY"> F  </i>
   <i type="logical" name="LSPECTRAL"> F  </i>
   <i type="logical" name="LSPECTRALGW"> F  </i>
   <i type="logical" name="LSINGLES"> F  </i>
   <i type="logical" name="LFERMIGW"> F  </i>
   <i type="logical" name="ODDONLYGW"> F  </i>
   <i type="logical" name="EVENONLYGW"> F  </i>
   <i type="int" name="NKREDLFX">     1</i>
   <i type="int" name="NKREDLFY">     1</i>
   <i type="int" name="NKREDLFZ">     1</i>
   <i type="int" name="MAXMEM">  1800</i>
   <i type="int" name="TELESCOPE">     0</i>
   <i type="int" name="TAUPAR">     1</i>
   <i type="int" name="OMEGAPAR">    -1</i>
   <i name="LAMBDA">      1.00000000</i>
  </separator>
  <separator name="External order field" >
   <i name="OFIELD_KAPPA">      0.00000000</i>
   <v name="OFIELD_K">      0.00000000      0.00000000      0.00000000</v>
   <i name="OFIELD_Q6_NEAR">      0.00000000</i>
   <i name="OFIELD_Q6_FAR">      0.00000000</i>
   <i name="OFIELD_A">      0.00000000</i>
  </separator>
 </parameters>
 <atominfo>
  <atoms>      48 </atoms>
  <types>       2 </types>
  <array name="atoms" >
   <dimension dim="1">ion</dimension>
   <field type="string">element</field>
   <field type="int">atomtype</field>
   <set>
    <rc><c>O </c><c>   1</c></rc>
    <rc><c>O </c><c>   1</c></rc>
    <rc><c>O </c><c>   1</c></rc>
    <rc><c>O </c><c>   1</c></rc>
    <rc><c>O </c><c>   1</c></rc>
    <rc><c>O </c><c>   1</c></rc>
    <rc><c>O </c><c>   1</c></rc>
    <rc><c>O </c><c>   1</c></rc>
    <rc><c>O </c><c>   1</c></rc>
    <rc><c>O </c><c>   1</c></rc>
    <rc><c>O </c><c>   1</c></rc>
    <rc><c>O </c><c>   1</c></rc>
    <rc><c>O </c><c>   1</c></rc>
    <rc><c>O </c><c>   1</c></rc>
    <rc><c>O </c><c>   1</c></rc>
    <rc><c>O </c><c>   1</c></rc>
    <rc><c>O </c><c>   1</c></rc>
    <rc><c>O </c><c>   1</c></rc>
    <rc><c>O </c><c>   1</c></rc>
    <rc><c>O </c><c>   1</c></rc>
    <rc><c>O </c><c>   1</c></rc>
    <rc><c>O </c><c>   1</c></rc>
    <rc><c>O </c><c>   1</c></rc>
    <rc><c>O </c><c>   1</c></rc>
    <rc><c>O </c><c>   1</c></rc>
    <rc><c>O </c><c>   1</c></rc>
    <rc><c>O </c><c>   1</c></rc>
    <rc><c>O </c><c>   1</c></rc>
    <rc><c>O </c><c>   1</c></rc>
    <rc><c>O </c><c>   1</c></rc>
    <rc><c>O </c><c>   1</c></rc>
    <rc><c>O </c><c>   1</c></rc>
    <rc><c>Ru</c><c>   2</c></rc>
    <rc><c>Ru</c><c>   2</c></rc>
    <rc><c>Ru</c><c>   2</c></rc>
    <rc><c>Ru</c><c>   2</c></rc>
    <rc><c>Ru</c><c>   2</c></rc>
    <rc><c>Ru</c><c>   2</c></rc>
    <rc><c>Ru</c><c>   2</c></rc>
    <rc><c>Ru</c><c>   2</c></rc>
    <rc><c>Ru</c><c>   2</c></rc>
    <rc><c>Ru</c><c>   2</c></rc>
    <rc><c>Ru</c><c>   2</c></rc>
    <rc><c>Ru</c><c>   2</c></rc>
    <rc><c>Ru</c><c>   2</c></rc>
    <rc><c>Ru</c><c>   2</c></rc>
    <rc><c>Ru</c><c>   2</c></rc>
    <rc><c>Ru</c><c>   2</c></rc>
   </set>
  </array>
  <array name="atomtypes" >
   <dimension dim="1">type</dimension>
   <field type="int">atomspertype</field>
   <field type="string">element</field>
   <field>mass</field>
   <field>valence</field>
   <field type="string">pseudopotential</field>
   <set>
    <rc><c>  32</c><c>O </c><c>     16.00000000</c><c>      6.00000000</c><c>  PAW_PBE O 08Apr2002                   </c></rc>
    <rc><c>  16</c><c>Ru</c><c>    101.07000000</c><c>      8.00000000</c><c>  PAW_PBE Ru 04Feb2005                  </c></rc>
   </set>
  </array>
 </atominfo>
 <structure name="initialpos" >
  <crystal>
   <varray name="basis" >
    <v>       0.00000000       0.00000000       6.22358237 </v>
    <v>       4.49629428      -4.49629428       0.00000000 </v>
    <v>      15.56204978      15.56204978       0.00000000 </v>
   </varray>
   <i name="volume">    870.94747731 </i>
   <varray name="rec_basis" >
    <v>       0.00000000       0.00000000       0.16067916 </v>
    <v>       0.11120269      -0.11120269       0.00000000 </v>
    <v>       0.03212944       0.03212944       0.00000000 </v>
   </varray>
  </crystal>
  <varray name="positions" >
   <v>       0.33911189       0.07924319       0.05611538 </v>
   <v>       0.83911189       0.07924319       0.05611538 </v>
   <v>       0.33911189       0.46768319       0.05611538 </v>
   <v>       0.83911189       0.46768319       0.05611538 </v>
   <v>       0.08911189       0.77346319       0.11223075 </v>
   <v>       0.58911189       0.77346319       0.11223075 </v>
   <v>       0.08911189       0.27346319       0.14446343 </v>
   <v>       0.58911189       0.27346319       0.14446343 </v>
   <v>       0.33911189       0.57924319       0.20057881 </v>
   <v>       0.83911189       0.57924319       0.20057881 </v>
   <v>       0.33911189       0.96768319       0.20057881 </v>
   <v>       0.83911189       0.96768319       0.20057881 </v>
   <v>       0.08911189       0.27346319       0.25669419 </v>
   <v>       0.58911189       0.27346319       0.25669419 </v>
   <v>       0.08911189       0.77346319       0.28892687 </v>
   <v>       0.58911189       0.77346319       0.28892687 </v>
   <v>       0.33911189       0.07924319       0.34504224 </v>
   <v>       0.83911189       0.07924319       0.34504224 </v>
   <v>       0.33911189       0.46768319       0.34504224 </v>
   <v>       0.83911189       0.46768319       0.34504224 </v>
   <v>       0.08911189       0.77346319       0.40115762 </v>
   <v>       0.58911189       0.77346319       0.40115762 </v>
   <v>       0.08911189       0.27346319       0.43339030 </v>
   <v>       0.58911189       0.27346319       0.43339030 </v>
   <v>       0.33911189       0.57924319       0.48950568 </v>
   <v>       0.83911189       0.57924319       0.48950568 </v>
   <v>       0.33911189       0.96768319       0.48950568 </v>
   <v>       0.83911189       0.96768319       0.48950568 </v>
   <v>       0.08911189       0.27346319       0.54562105 </v>
   <v>       0.58911189       0.27346319       0.54562105 </v>
   <v>       0.08911189       0.77346319       0.00000000 </v>
   <v>       0.58911189       0.77346319       0.00000000 </v>
   <v>       0.08911189       0.27346319       0.05611538 </v>
   <v>       0.58911189       0.27346319       0.05611538 </v>
   <v>       0.33911189       0.77346319       0.05611538 </v>
   <v>       0.83911189       0.77346319       0.05611538 </v>
   <v>       0.33911189       0.27346319       0.20057881 </v>
   <v>       0.83911189       0.27346319       0.20057881 </v>
   <v>       0.08911189       0.77346319       0.20057881 </v>
   <v>       0.58911189       0.77346319       0.20057881 </v>
   <v>       0.08911189       0.27346319       0.34504224 </v>
   <v>       0.58911189       0.27346319       0.34504224 </v>
   <v>       0.33911189       0.77346319       0.34504224 </v>
   <v>       0.83911189       0.77346319       0.34504224 </v>
   <v>       0.33911189       0.27346319       0.48950568 </v>
   <v>       0.83911189       0.27346319       0.48950568 </v>
   <v>       0.08911189       0.77346319       0.48950568 </v>
   <v>       0.58911189       0.77346319       0.48950568 </v>
  </varray>
  <varray name="selective"  type="logical" >
   <v type="logical" >  F  F  F </v>
   <v type="logical" >  F  F  F </v>
   <v type="logical" >  F  F  F </v>
   <v type="logical" >  F  F  F </v>
   <v type="logical" >  F  F  F </v>
   <v type="logical" >  F  F  F </v>
   <v type="logical" >  F  F  F </v>
   <v type="logical" >  F  F  F </v>
   <v type="logical" >  F  F  F </v>
   <v type="logical" >  F  F  F </v>
   <v type="logical" >  F  F  F </v>
   <v type="logical" >  F  F  F </v>
   <v type="logical" >  F  F  F </v>
   <v type="logical" >  F  F  F </v>
   <v type="logical" >  T  T  T </v>
   <v type="logical" >  T  T  T </v>
   <v type="logical" >  T  T  T </v>
   <v type="logical" >  T  T  T </v>
   <v type="logical" >  T  T  T </v>
   <v type="logical" >  T  T  T </v>
   <v type="logical" >  T  T  T </v>
   <v type="logical" >  T  T  T </v>
   <v type="logical" >  T  T  T </v>
   <v type="logical" >  T  T  T </v>
   <v type="logical" >  T  T  T </v>
   <v type="logical" >  T  T  T </v>
   <v type="logical" >  T  T  T </v>
   <v type="logical" >  T  T  T </v>
   <v type="logical" >  T  T  T </v>
   <v type="logical" >  T  T  T </v>
   <v type="logical" >  F  F  F </v>
   <v type="logical" >  F  F  F </v>
   <v type="logical" >  F  F  F </v>
   <v type="logical" >  F  F  F </v>
   <v type="logical" >  F  F  F </v>
   <v type="logical" >  F  F  F </v>
   <v type="logical" >  F  F  F </v>
   <v type="logical" >  F  F  F </v>
   <v type="logical" >  F  F  F </v>
   <v type="logical" >  F  F  F </v>
   <v type="logical" >  T  T  T </v>
   <v type="logical" >  T  T  T </v>
   <v type="logical" >  T  T  T </v>
   <v type="logical" >  T  T  T </v>
   <v type="logical" >  T  T  T </v>
   <v type="logical" >  T  T  T </v>
   <v type="logical" >  T  T  T </v>
   <v type="logical" >  T  T  T </v>
  </varray>
  <nose>
   <v>      -3.00000000       0.00000000       0.00010000       0.00010000 </v>
  </nose>
 </structure>
 <calculation>
  <scstep>
   <time name="dav">   26.61   26.62</time>
   <time name="total">   26.92   26.93</time>
   <energy>
    <i name="alphaZ">    609.44296926 </i>
    <i name="ewald">  60557.54858511 </i>
    <i name="hartreedc"> -81632.21679088 </i>
    <i name="XCdc">    373.09181178 </i>
    <i name="pawpsdc">  18486.22485618 </i>
    <i name="pawaedc"> -17763.92939513 </i>
    <i name="eentropy">     -0.02399924 </i>
    <i name="bandstr">   1009.82972971 </i>
    <i name="atom">  21113.52039259 </i>
    <i name="e_fr_energy">   2753.48815939 </i>
    <i name="e_wo_entrp">   2753.51215862 </i>
    <i name="e_0_energy">   2753.50015900 </i>
   </energy>
  </scstep>
  <scstep>
   <time name="dav">   29.18   29.20</time>
   <time name="total">   29.18   29.48</time>
   <energy>
    <i name="e_fr_energy">    -45.78872664 </i>
    <i name="e_wo_entrp">    -45.74153062 </i>
    <i name="e_0_energy">    -45.76512863 </i>
   </energy>
  </scstep>
  <scstep>
   <time name="dav">   28.83   28.84</time>
   <time name="total">   28.84   28.85</time>
   <energy>
    <i name="e_fr_energy">   -401.96839452 </i>
    <i name="e_wo_entrp">   -401.88417592 </i>
    <i name="e_0_energy">   -401.92628522 </i>
   </energy>
  </scstep>
  <scstep>
   <time name="dav">   30.60   30.60</time>
   <time name="total">   30.60   30.61</time>
   <energy>
    <i name="e_fr_energy">   -412.16049077 </i>
    <i name="e_wo_entrp">   -412.07469747 </i>
    <i name="e_0_energy">   -412.11759412 </i>
   </energy>
  </scstep>
  <scstep>
   <time name="dav">   29.47   29.48</time>
   <time name="total">   30.38   30.40</time>
   <energy>
    <i name="e_fr_energy">   -412.35413982 </i>
    <i name="e_wo_entrp">   -412.26838789 </i>
    <i name="e_0_energy">   -412.31126386 </i>
   </energy>
  </scstep>
  <scstep>
   <time name="diag">    4.44    4.44</time>
   <time name="diis">   14.80   14.81</time>
   <time name="orth">    0.86    0.86</time>
   <time name="total">   21.29   21.30</time>
   <energy>
    <i name="e_fr_energy">   -344.04484013 </i>
    <i name="e_wo_entrp">   -344.00482776 </i>
    <i name="e_0_energy">   -344.02483395 </i>
   </energy>
  </scstep>
  <scstep>
   <time name="diag">    4.45    4.45</time>
   <time name="diis">   14.79   14.79</time>
   <time name="orth">    0.86    0.86</time>
   <time name="total">   21.27   21.29</time>
   <energy>
    <i name="e_fr_energy">   -379.10039870 </i>
    <i name="e_wo_entrp">   -379.05246167 </i>
    <i name="e_0_energy">   -379.07643019 </i>
   </energy>
  </scstep>
  <scstep>
   <time name="diag">    4.45    4.45</time>
   <time name="diis">   14.82   14.83</time>
   <time name="orth">    0.86    0.86</time>
   <time name="total">   21.30   21.31</time>
   <energy>
    <i name="e_fr_energy">   -394.65069653 </i>
    <i name="e_wo_entrp">   -394.63904240 </i>
    <i name="e_0_energy">   -394.64486946 </i>
   </energy>
  </scstep>
  <scstep>
   <time name="diag">    4.44    4.45</time>
   <time name="diis">   14.79   14.80</time>
   <time name="orth">    0.86    0.86</time>
   <time name="total">   21.28   21.30</time>
   <energy>
    <i name="e_fr_energy">   -310.46570742 </i>
    <i name="e_wo_entrp">   -310.43125048 </i>
    <i name="e_0_energy">   -310.44847895 </i>
   </energy>
  </scstep>
  <scstep>
   <time name="diag">    4.45    4.45</time>
   <time name="diis">   14.82   14.83</time>
   <time name="orth">    0.85    0.86</time>
   <time name="total">   21.32   21.33</time>
   <energy>
    <i name="e_fr_energy">   -321.05179535 </i>
    <i name="e_wo_entrp">   -320.99396584 </i>
    <i name="e_0_energy">   -321.02288059 </i>
   </energy>
  </scstep>
  <scstep>
   <time name="diag">    4.42    4.42</time>
   <time name="diis">   14.88   14.88</time>
   <time name="orth">    0.86    0.86</time>
   <time name="total">   21.34   21.35</time>
   <energy>
    <i name="e_fr_energy">   -307.93803227 </i>
    <i name="e_wo_entrp">   -307.88880730 </i>
    <i name="e_0_energy">   -307.91341979 </i>
   </energy>
  </scstep>
  <scstep>
   <time name="diag">    4.43    4.43</time>
   <time name="diis">   14.86   14.87</time>
   <time name="orth">    0.86    0.86</time>
   <time name="total">   21.33   21.34</time>
   <energy>
    <i name="e_fr_energy">   -317.92987550 </i>
    <i name="e_wo_entrp">   -317.89131914 </i>
    <i name="e_0_energy">   -317.91059732 </i>
   </energy>
  </scstep>
  <scstep>
   <time name="diag">    4.42    4.42</time>
   <time name="diis">   14.85   14.85</time>
   <time name="orth">    0.86    0.86</time>
   <time name="total">   21.30   21.43</time>
   <energy>
    <i name="e_fr_energy">   -312.31088610 </i>
    <i name="e_wo_entrp">   -312.26423333 </i>
    <i name="e_0_energy">   -312.28755971 </i>
   </energy>
  </scstep>
  <scstep>
   <time name="diag">    4.44    4.44</time>
   <time name="diis">   14.89   14.89</time>
   <time name="orth">    0.86    0.86</time>
   <time name="total">   21.36   21.37</time>
   <energy>
    <i name="e_fr_energy">   -314.72339919 </i>
    <i name="e_wo_entrp">   -314.68682623 </i>
    <i name="e_0_energy">   -314.70511271 </i>
   </energy>
  </scstep>
  <scstep>
   <time name="diag">    4.43    4.43</time>
   <time name="diis">   14.85   14.85</time>
   <time name="orth">    0.86    0.86</time>
   <time name="total">   21.31   21.32</time>
   <energy>
    <i name="e_fr_energy">   -319.64126609 </i>
    <i name="e_wo_entrp">   -319.60574447 </i>
    <i name="e_0_energy">   -319.62350528 </i>
   </energy>
  </scstep>
  <scstep>
   <time name="diag">    4.44    4.44</time>
   <time name="diis">   14.88   14.88</time>
   <time name="orth">    0.86    0.86</time>
   <time name="total">   21.37   21.39</time>
   <energy>
    <i name="e_fr_energy">   -329.81442522 </i>
    <i name="e_wo_entrp">   -329.77306617 </i>
    <i name="e_0_energy">   -329.79374569 </i>
   </energy>
  </scstep>
  <scstep>
   <time name="diag">    4.43    4.44</time>
   <time name="diis">   14.86   14.87</time>
   <time name="orth">    0.86    0.86</time>
   <time name="total">   21.34   21.85</time>
   <energy>
    <i name="e_fr_energy">   -341.38862171 </i>
    <i name="e_wo_entrp">   -341.35220053 </i>
    <i name="e_0_energy">   -341.37041112 </i>
   </energy>
  </scstep>
  <scstep>
   <time name="diag">    4.44    4.44</time>
   <time name="diis">   14.85   14.86</time>
   <time name="orth">    0.86    0.86</time>
   <time name="total">   21.33   21.35</time>
   <energy>
    <i name="e_fr_energy">   -345.26157330 </i>
    <i name="e_wo_entrp">   -345.22549977 </i>
    <i name="e_0_energy">   -345.24353653 </i>
   </energy>
  </scstep>
  <scstep>
   <time name="diag">    4.44    4.44</time>
   <time name="diis">   14.83   14.84</time>
   <time name="orth">    0.86    0.86</time>
   <time name="total">   21.32   21.48</time>
   <energy>
    <i name="e_fr_energy">   -346.61351972 </i>
    <i name="e_wo_entrp">   -346.57890197 </i>
    <i name="e_0_energy">   -346.59621085 </i>
   </energy>
  </scstep>
  <scstep>
   <time name="diag">    4.44    4.44</time>
   <time name="diis">   14.84   14.85</time>
   <time name="orth">    0.86    0.86</time>
   <time name="total">   21.32   21.81</time>
   <energy>
    <i name="e_fr_energy">   -348.66182911 </i>
    <i name="e_wo_entrp">   -348.61437996 </i>
    <i name="e_0_energy">   -348.63810453 </i>
   </energy>
  </scstep>
  <scstep>
   <time name="diag">    4.44    4.44</time>
   <time name="diis">   14.83   14.83</time>
   <time name="orth">    0.86    0.86</time>
   <time name="total">   21.30   21.88</time>
   <energy>
    <i name="e_fr_energy">   -348.94647883 </i>
    <i name="e_wo_entrp">   -348.90504110 </i>
    <i name="e_0_energy">   -348.92575996 </i>
   </energy>
  </scstep>
  <scstep>
   <time name="diag">    4.43    4.43</time>
   <time name="diis">   14.86   14.86</time>
   <time name="orth">    0.86    0.86</time>
   <time name="total">   21.33   21.60</time>
   <energy>
    <i name="e_fr_energy">   -348.95150520 </i>
    <i name="e_wo_entrp">   -348.90893870 </i>
    <i name="e_0_energy">   -348.93022195 </i>
   </energy>
  </scstep>
  <scstep>
   <time name="diag">    4.43    4.43</time>
   <time name="diis">   14.86   14.86</time>
   <time name="orth">    0.86    0.86</time>
   <time name="total">   21.33   21.34</time>
   <energy>
    <i name="e_fr_energy">   -349.21653892 </i>
    <i name="e_wo_entrp">   -349.17711300 </i>
    <i name="e_0_energy">   -349.19682596 </i>
   </energy>
  </scstep>
  <scstep>
   <time name="diag">    4.43    4.43</time>
   <time name="diis">   14.85   14.86</time>
   <time name="orth">    0.86    0.86</time>
   <time name="total">   21.32   21.67</time>
   <energy>
    <i name="e_fr_energy">   -349.28956325 </i>
    <i name="e_wo_entrp">   -349.25033697 </i>
    <i name="e_0_energy">   -349.26995011 </i>
   </energy>
  </scstep>
  <scstep>
   <time name="diag">    4.43    4.43</time>
   <time name="diis">   14.83   14.84</time>
   <time name="orth">    0.85    0.86</time>
   <time name="total">   21.30   21.90</time>
   <energy>
    <i name="e_fr_energy">   -349.29366965 </i>
    <i name="e_wo_entrp">   -349.25284585 </i>
    <i name="e_0_energy">   -349.27325775 </i>
   </energy>
  </scstep>
  <scstep>
   <time name="diag">    4.44    4.44</time>
   <time name="diis">   14.76   14.76</time>
   <time name="orth">    0.86    0.86</time>
   <time name="total">   21.24   21.33</time>
   <energy>
    <i name="e_fr_energy">   -349.39089698 </i>
    <i name="e_wo_entrp">   -349.35092655 </i>
    <i name="e_0_energy">   -349.37091176 </i>
   </energy>
  </scstep>
  <scstep>
   <time name="diag">    4.44    4.44</time>
   <time name="diis">   14.78   14.78</time>
   <time name="orth">    0.86    0.86</time>
   <time name="total">   21.26   21.83</time>
   <energy>
    <i name="e_fr_energy">   -349.39817216 </i>
    <i name="e_wo_entrp">   -349.35719695 </i>
    <i name="e_0_energy">   -349.37768455 </i>
   </energy>
  </scstep>
  <scstep>
   <time name="diag">    4.44    4.44</time>
   <time name="diis">   14.75   14.76</time>
   <time name="orth">    0.86    0.86</time>
   <time name="total">   21.24   21.25</time>
   <energy>
    <i name="e_fr_energy">   -349.37754089 </i>
    <i name="e_wo_entrp">   -349.33584873 </i>
    <i name="e_0_energy">   -349.35669481 </i>
   </energy>
  </scstep>
  <scstep>
   <time name="diag">    4.44    4.44</time>
   <time name="diis">   14.79   14.79</time>
   <time name="orth">    0.86    0.86</time>
   <time name="total">   21.27   22.07</time>
   <energy>
    <i name="e_fr_energy">   -349.38673390 </i>
    <i name="e_wo_entrp">   -349.34356610 </i>
    <i name="e_0_energy">   -349.36515000 </i>
   </energy>
  </scstep>
  <scstep>
   <time name="diag">    4.44    4.44</time>
   <time name="diis">   14.79   14.79</time>
   <time name="orth">    0.86    0.86</time>
   <time name="total">   21.27   21.29</time>
   <energy>
    <i name="e_fr_energy">   -349.41792269 </i>
    <i name="e_wo_entrp">   -349.37399951 </i>
    <i name="e_0_energy">   -349.39596110 </i>
   </energy>
  </scstep>
  <scstep>
   <time name="diag">    4.44    4.44</time>
   <time name="diis">   14.84   14.85</time>
   <time name="orth">    0.86    0.86</time>
   <time name="total">   21.31   21.79</time>
   <energy>
    <i name="e_fr_energy">   -349.46582141 </i>
    <i name="e_wo_entrp">   -349.42116367 </i>
    <i name="e_0_energy">   -349.44349254 </i>
   </energy>
  </scstep>
  <scstep>
   <time name="diag">    4.44    4.44</time>
   <time name="diis">   14.42   14.43</time>
   <time name="orth">    0.86    0.86</time>
   <time name="total">   20.90   21.45</time>
   <energy>
    <i name="e_fr_energy">   -349.49795549 </i>
    <i name="e_wo_entrp">   -349.45316868 </i>
    <i name="e_0_energy">   -349.47556208 </i>
   </energy>
  </scstep>
  <scstep>
   <time name="diag">    4.44    4.44</time>
   <time name="diis">   13.72   13.73</time>
   <time name="orth">    0.86    0.86</time>
   <time name="total">   20.19   20.21</time>
   <energy>
    <i name="e_fr_energy">   -349.51849059 </i>
    <i name="e_wo_entrp">   -349.47365716 </i>
    <i name="e_0_energy">   -349.49607387 </i>
   </energy>
  </scstep>
  <scstep>
   <time name="diag">    4.44    4.44</time>
   <time name="diis">   14.73   14.74</time>
   <time name="orth">    0.86    0.86</time>
   <time name="total">   21.20   21.21</time>
   <energy>
    <i name="e_fr_energy">   -349.55773675 </i>
    <i name="e_wo_entrp">   -349.51301610 </i>
    <i name="e_0_energy">   -349.53537642 </i>
   </energy>
  </scstep>
  <scstep>
   <time name="diag">    4.44    4.44</time>
   <time name="diis">   13.85   13.85</time>
   <time name="orth">    0.86    0.86</time>
   <time name="total">   20.32   20.81</time>
   <energy>
    <i name="e_fr_energy">   -349.58211944 </i>
    <i name="e_wo_entrp">   -349.53767400 </i>
    <i name="e_0_energy">   -349.55989672 </i>
   </energy>
  </scstep>
  <scstep>
   <time name="diag">    4.44    4.44</time>
   <time name="diis">   13.81   13.81</time>
   <time name="orth">    0.86    0.86</time>
   <time name="total">   20.28   20.66</time>
   <energy>
    <i name="e_fr_energy">   -349.61493596 </i>
    <i name="e_wo_entrp">   -349.57097473 </i>
    <i name="e_0_energy">   -349.59295534 </i>
   </energy>
  </scstep>
  <scstep>
   <time name="diag">    4.44    4.44</time>
   <time name="diis">   13.59   13.60</time>
   <time name="orth">    0.86    0.86</time>
   <time name="total">   20.06   20.09</time>
   <energy>
    <i name="e_fr_energy">   -349.64138273 </i>
    <i name="e_wo_entrp">   -349.59762316 </i>
    <i name="e_0_energy">   -349.61950295 </i>
   </energy>
  </scstep>
  <scstep>
   <time name="diag">    4.42    4.43</time>
   <time name="diis">   12.41   12.41</time>
   <time name="orth">    0.86    0.86</time>
   <time name="total">   18.86   18.88</time>
   <energy>
    <i name="e_fr_energy">   -349.65703973 </i>
    <i name="e_wo_entrp">   -349.61336829 </i>
    <i name="e_0_energy">   -349.63520401 </i>
   </energy>
  </scstep>
  <scstep>
   <time name="diag">    4.42    4.42</time>
   <time name="diis">   10.21   10.22</time>
   <time name="orth">    0.86    0.86</time>
   <time name="total">   16.67   16.68</time>
   <energy>
    <i name="e_fr_energy">   -349.66184292 </i>
    <i name="e_wo_entrp">   -349.61821344 </i>
    <i name="e_0_energy">   -349.64002818 </i>
   </energy>
  </scstep>
  <scstep>
   <time name="diag">    4.42    4.42</time>
   <time name="diis">    9.19    9.19</time>
   <time name="orth">    0.86    0.86</time>
   <time name="total">   15.64   15.66</time>
   <energy>
    <i name="e_fr_energy">   -349.66244814 </i>
    <i name="e_wo_entrp">   -349.61881035 </i>
    <i name="e_0_energy">   -349.64062924 </i>
   </energy>
  </scstep>
  <scstep>
   <time name="diag">    4.41    4.41</time>
   <time name="diis">    8.95    8.95</time>
   <time name="orth">    0.86    0.86</time>
   <time name="total">   15.40   15.41</time>
   <energy>
    <i name="e_fr_energy">   -349.66331174 </i>
    <i name="e_wo_entrp">   -349.61964358 </i>
    <i name="e_0_energy">   -349.64147766 </i>
   </energy>
  </scstep>
  <scstep>
   <time name="diag">    4.41    4.41</time>
   <time name="diis">    9.12    9.13</time>
   <time name="orth">    0.86    0.86</time>
   <time name="total">   15.57   15.58</time>
   <energy>
    <i name="e_fr_energy">   -349.66551588 </i>
    <i name="e_wo_entrp">   -349.62173525 </i>
    <i name="e_0_energy">   -349.64362557 </i>
   </energy>
  </scstep>
  <scstep>
   <time name="diag">    4.41    4.41</time>
   <time name="diis">    8.71    8.71</time>
   <time name="orth">    0.86    0.86</time>
   <time name="total">   14.27   15.69</time>
   <energy>
    <i name="alphaZ">    609.44296926 </i>
    <i name="ewald">  60557.54858511 </i>
    <i name="hartreedc"> -81936.07065677 </i>
    <i name="XCdc">    392.92856320 </i>
    <i name="pawpsdc">  27440.29392973 </i>
    <i name="pawaedc"> -26776.88722784 </i>
    <i name="eentropy">     -0.04388165 </i>
    <i name="bandstr">  -1750.39825944 </i>
    <i name="atom">  21113.52039259 </i>
    <i name="e_fr_energy">   -349.66558582 </i>
    <i name="e_wo_entrp">   -349.62170417 </i>
    <i name="e_0_energy">   -349.64364500 </i>
   </energy>
  </scstep>
  <structure>
   <crystal>
    <varray name="basis" >
     <v>       0.00000000       0.00000000       6.22358237 </v>
     <v>       4.49629428      -4.49629428       0.00000000 </v>
     <v>      15.56204978      15.56204978       0.00000000 </v>
    </varray>
    <i name="volume">    870.94747731 </i>
    <varray name="rec_basis" >
     <v>       0.00000000       0.00000000       0.16067916 </v>
     <v>       0.11120269      -0.11120269       0.00000000 </v>
     <v>       0.03212944       0.03212944       0.00000000 </v>
    </varray>
   </crystal>
   <varray name="positions" >
    <v>       0.33911189       0.07924319       0.05611538 </v>
    <v>       0.83911189       0.07924319       0.05611538 </v>
    <v>       0.33911189       0.46768319       0.05611538 </v>
    <v>       0.83911189       0.46768319       0.05611538 </v>
    <v>       0.08911189       0.77346319       0.11223075 </v>
    <v>       0.58911189       0.77346319       0.11223075 </v>
    <v>       0.08911189       0.27346319       0.14446343 </v>
    <v>       0.58911189       0.27346319       0.14446343 </v>
    <v>       0.33911189       0.57924319       0.20057881 </v>
    <v>       0.83911189       0.57924319       0.20057881 </v>
    <v>       0.33911189       0.96768319       0.20057881 </v>
    <v>       0.83911189       0.96768319       0.20057881 </v>
    <v>       0.08911189       0.27346319       0.25669419 </v>
    <v>       0.58911189       0.27346319       0.25669419 </v>
    <v>       0.08911189       0.77346319       0.28892687 </v>
    <v>       0.58911189       0.77346319       0.28892687 </v>
    <v>       0.33911189       0.07924319       0.34504224 </v>
    <v>       0.83911189       0.07924319       0.34504224 </v>
    <v>       0.33911189       0.46768319       0.34504224 </v>
    <v>       0.83911189       0.46768319       0.34504224 </v>
    <v>       0.08911189       0.77346319       0.40115762 </v>
    <v>       0.58911189       0.77346319       0.40115762 </v>
    <v>       0.08911189       0.27346319       0.43339030 </v>
    <v>       0.58911189       0.27346319       0.43339030 </v>
    <v>       0.33911189       0.57924319       0.48950568 </v>
    <v>       0.83911189       0.57924319       0.48950568 </v>
    <v>       0.33911189       0.96768319       0.48950568 </v>
    <v>       0.83911189       0.96768319       0.48950568 </v>
    <v>       0.08911189       0.27346319       0.54562105 </v>
    <v>       0.58911189       0.27346319       0.54562105 </v>
    <v>       0.08911189       0.77346319       0.00000000 </v>
    <v>       0.58911189       0.77346319       0.00000000 </v>
    <v>       0.08911189       0.27346319       0.05611538 </v>
    <v>       0.58911189       0.27346319       0.05611538 </v>
    <v>       0.33911189       0.77346319       0.05611538 </v>
    <v>       0.83911189       0.77346319       0.05611538 </v>
    <v>       0.33911189       0.27346319       0.20057881 </v>
    <v>       0.83911189       0.27346319       0.20057881 </v>
    <v>       0.08911189       0.77346319       0.20057881 </v>
    <v>       0.58911189       0.77346319       0.20057881 </v>
    <v>       0.08911189       0.27346319       0.34504224 </v>
    <v>       0.58911189       0.27346319       0.34504224 </v>
    <v>       0.33911189       0.77346319       0.34504224 </v>
    <v>       0.83911189       0.77346319       0.34504224 </v>
    <v>       0.33911189       0.27346319       0.48950568 </v>
    <v>       0.83911189       0.27346319       0.48950568 </v>
    <v>       0.08911189       0.77346319       0.48950568 </v>
    <v>       0.58911189       0.77346319       0.48950568 </v>
   </varray>
  </structure>
  <varray name="forces" >
   <v>      -0.09342577      -0.78985473      -0.00242883 </v>
   <v>      -0.09348989      -0.78985797      -0.00212077 </v>
   <v>      -0.79255336      -0.08888845      -0.00005638 </v>
   <v>      -0.79255597      -0.08895280       0.00025234 </v>
   <v>       0.23410904       0.22976709      -0.00019516 </v>
   <v>       0.23398923       0.22964705      -0.00028003 </v>
   <v>      -0.17367269      -0.17486738      -0.00062336 </v>
   <v>      -0.17339203      -0.17458637      -0.00137941 </v>
   <v>       0.00696404      -0.06062606      -0.00087071 </v>
   <v>       0.00708538      -0.06086663      -0.00084967 </v>
   <v>      -0.05954749       0.00582622       0.00516422 </v>
   <v>      -0.05978804       0.00594735       0.00518520 </v>
   <v>       0.06015589       0.05925557      -0.00071933 </v>
   <v>       0.06015942       0.05925924      -0.00134801 </v>
   <v>      -0.05767980      -0.06083451       0.00107862 </v>
   <v>      -0.05771149      -0.06086625      -0.00026034 </v>
   <v>       0.05939239      -0.00373464      -0.00175644 </v>
   <v>       0.05993029      -0.00417462      -0.00170482 </v>
   <v>      -0.00851292       0.06379845       0.00063267 </v>
   <v>      -0.00895258       0.06433600       0.00068412 </v>
   <v>       0.17661064       0.17128568       0.00051885 </v>
   <v>       0.17656341       0.17123948      -0.00122288 </v>
   <v>      -0.23017261      -0.23515385      -0.00091013 </v>
   <v>      -0.23000919      -0.23499262      -0.00129021 </v>
   <v>       0.78648040       0.09233046      -0.00132268 </v>
   <v>       0.78653032       0.09243072      -0.00121410 </v>
   <v>       0.08967055       0.79278867       0.00419679 </v>
   <v>       0.08977123       0.79283888       0.00429848 </v>
   <v>      -1.22295363      -1.22417023      -0.00032317 </v>
   <v>      -1.22307139      -1.22429690      -0.00073977 </v>
   <v>       1.22634108       1.22147798      -0.00005237 </v>
   <v>       1.22647388       1.22160386      -0.00012997 </v>
   <v>       1.31835633       1.31970106       0.00008541 </v>
   <v>       1.31773688       1.31908397       0.00003519 </v>
   <v>      -1.57100834      -1.57046067       0.00008755 </v>
   <v>      -1.57086891      -1.57032108      -0.00050611 </v>
   <v>      -0.30130675      -0.30192233      -0.00100966 </v>
   <v>      -0.30105675      -0.30167234      -0.00088575 </v>
   <v>       0.03550214       0.03416567       0.00110814 </v>
   <v>       0.03536953       0.03403273       0.00156852 </v>
   <v>      -0.03200936      -0.03082783      -0.00024175 </v>
   <v>      -0.03200102      -0.03081981       0.00069228 </v>
   <v>       0.30266373       0.30304328      -0.00159717 </v>
   <v>       0.30220486       0.30258435      -0.00158387 </v>
   <v>       1.56903654       1.56904849       0.00010166 </v>
   <v>       1.56857937       1.56859161      -0.00030995 </v>
   <v>      -1.32204494      -1.32074464       0.00120354 </v>
   <v>      -1.32189166      -1.32059114       0.00103924 </v>
  </varray>
  <varray name="stress" >
   <v>      -9.05495252     -12.32750720       0.01644978 </v>
   <v>     -12.32750727      -9.09195862      -0.01754114 </v>
   <v>       0.01644996      -0.01754103     -24.48229907 </v>
  </varray>
  <energy>
   <i name="e_fr_energy">   -358.56833705 </i>
   <i name="e_wo_entrp">   -358.54639622 </i>
   <i name="e_0_energy">     -0.04388165 </i>
  </energy>
  <time name="totalsc">  948.87  958.09</time>
 </calculation>
 <calculation>
  <scstep>
   <time name="dav">   27.08   27.10</time>
   <time name="total">   28.25   28.27</time>
   <energy>
    <i name="alphaZ">    609.44296926 </i>
    <i name="ewald">  60570.86908023 </i>
    <i name="hartreedc"> -81947.66213792 </i>
    <i name="XCdc">    393.04836942 </i>
    <i name="pawpsdc">  27440.13180332 </i>
    <i name="pawaedc"> -26776.72470014 </i>
    <i name="eentropy">     -0.04128469 </i>
    <i name="bandstr">  -1752.46662535 </i>
    <i name="atom">  21113.52039259 </i>
    <i name="e_fr_energy">   -349.88213327 </i>
    <i name="e_wo_entrp">   -349.84084858 </i>
    <i name="e_0_energy">   -349.86149093 </i>
   </energy>
  </scstep>
  <scstep>
   <time name="diag">    4.42    4.42</time>
   <time name="diis">   14.74   14.75</time>
   <time name="orth">    0.86    0.86</time>
   <time name="total">   21.20   21.89</time>
   <energy>
    <i name="e_fr_energy">   -350.48094383 </i>
    <i name="e_wo_entrp">   -350.43973970 </i>
    <i name="e_0_energy">   -350.46034176 </i>
   </energy>
  </scstep>
  <scstep>
   <time name="diag">    4.43    4.43</time>
   <time name="diis">   14.78   14.79</time>
   <time name="orth">    0.86    0.86</time>
   <time name="total">   21.24   21.25</time>
   <energy>
    <i name="e_fr_energy">   -349.92309291 </i>
    <i name="e_wo_entrp">   -349.87824521 </i>
    <i name="e_0_energy">   -349.90066906 </i>
   </energy>
  </scstep>
  <scstep>
   <time name="diag">    4.43    4.43</time>
   <time name="diis">   14.75   14.76</time>
   <time name="orth">    0.86    0.86</time>
   <time name="total">   21.21   21.23</time>
   <energy>
    <i name="e_fr_energy">   -349.91107494 </i>
    <i name="e_wo_entrp">   -349.87222864 </i>
    <i name="e_0_energy">   -349.89165179 </i>
   </energy>
  </scstep>
  <scstep>
   <time name="diag">    4.42    4.43</time>
   <time name="diis">   14.71   14.72</time>
   <time name="orth">    0.86    0.86</time>
   <time name="total">   21.17   21.86</time>
   <energy>
    <i name="e_fr_energy">   -349.89975206 </i>
    <i name="e_wo_entrp">   -349.85712203 </i>
    <i name="e_0_energy">   -349.87843705 </i>
   </energy>
  </scstep>
  <scstep>
   <time name="diag">    4.43    4.43</time>
   <time name="diis">   14.78   14.78</time>
   <time name="orth">    0.86    0.86</time>
   <time name="total">   21.24   21.26</time>
   <energy>
    <i name="e_fr_energy">   -349.89332119 </i>
    <i name="e_wo_entrp">   -349.85214542 </i>
    <i name="e_0_energy">   -349.87273330 </i>
   </energy>
  </scstep>
  <scstep>
   <time name="diag">    4.42    4.43</time>
   <time name="diis">   14.68   14.69</time>
   <time name="orth">    0.86    0.86</time>
   <time name="total">   21.13   21.31</time>
   <energy>
    <i name="e_fr_energy">   -349.88280683 </i>
    <i name="e_wo_entrp">   -349.84167850 </i>
    <i name="e_0_energy">   -349.86224267 </i>
   </energy>
  </scstep>
  <scstep>
   <time name="diag">    4.42    4.42</time>
   <time name="diis">   13.86   13.87</time>
   <time name="orth">    0.86    0.86</time>
   <time name="total">   20.32   20.49</time>
   <energy>
    <i name="e_fr_energy">   -349.88090944 </i>
    <i name="e_wo_entrp">   -349.83949946 </i>
    <i name="e_0_energy">   -349.86020445 </i>
   </energy>
  </scstep>
  <scstep>
   <time name="diag">    4.42    4.42</time>
   <time name="diis">   13.15   13.16</time>
   <time name="orth">    0.86    0.86</time>
   <time name="total">   19.61   19.66</time>
   <energy>
    <i name="e_fr_energy">   -349.88035644 </i>
    <i name="e_wo_entrp">   -349.83864461 </i>
    <i name="e_0_energy">   -349.85950052 </i>
   </energy>
  </scstep>
  <scstep>
   <time name="diag">    4.42    4.42</time>
   <time name="diis">   10.89   10.89</time>
   <time name="orth">    0.86    0.86</time>
   <time name="total">   17.34   17.36</time>
   <energy>
    <i name="e_fr_energy">   -349.88164949 </i>
    <i name="e_wo_entrp">   -349.84007124 </i>
    <i name="e_0_energy">   -349.86086037 </i>
   </energy>
  </scstep>
  <scstep>
   <time name="diag">    4.42    4.42</time>
   <time name="diis">    9.89    9.89</time>
   <time name="orth">    0.86    0.86</time>
   <time name="total">   16.35   16.85</time>
   <energy>
    <i name="e_fr_energy">   -349.88389864 </i>
    <i name="e_wo_entrp">   -349.84223042 </i>
    <i name="e_0_energy">   -349.86306453 </i>
   </energy>
  </scstep>
  <scstep>
   <time name="diag">    4.43    4.43</time>
   <time name="diis">   10.03   10.03</time>
   <time name="orth">    0.86    0.86</time>
   <time name="total">   16.49   16.50</time>
   <energy>
    <i name="e_fr_energy">   -349.88779181 </i>
    <i name="e_wo_entrp">   -349.84612685 </i>
    <i name="e_0_energy">   -349.86695933 </i>
   </energy>
  </scstep>
  <scstep>
   <time name="diag">    4.42    4.42</time>
   <time name="diis">    9.26    9.26</time>
   <time name="orth">    0.86    0.86</time>
   <time name="total">   15.72   16.17</time>
   <energy>
    <i name="e_fr_energy">   -349.88950234 </i>
    <i name="e_wo_entrp">   -349.84784871 </i>
    <i name="e_0_energy">   -349.86867553 </i>
   </energy>
  </scstep>
  <scstep>
   <time name="diag">    4.42    4.43</time>
   <time name="diis">    9.37    9.37</time>
   <time name="orth">    0.86    0.87</time>
   <time name="total">   15.82   16.24</time>
   <energy>
    <i name="e_fr_energy">   -349.89179050 </i>
    <i name="e_wo_entrp">   -349.85017604 </i>
    <i name="e_0_energy">   -349.87098327 </i>
   </energy>
  </scstep>
  <scstep>
   <time name="diag">    4.43    4.43</time>
   <time name="diis">    8.66    8.67</time>
   <time name="orth">    0.86    0.86</time>
   <time name="total">   15.12   15.15</time>
   <energy>
    <i name="e_fr_energy">   -349.89313368 </i>
    <i name="e_wo_entrp">   -349.85151776 </i>
    <i name="e_0_energy">   -349.87232572 </i>
   </energy>
  </scstep>
  <scstep>
   <time name="diag">    4.43    4.43</time>
   <time name="diis">    8.62    8.62</time>
   <time name="orth">    0.86    0.86</time>
   <time name="total">   15.08   15.09</time>
   <energy>
    <i name="e_fr_energy">   -349.89398399 </i>
    <i name="e_wo_entrp">   -349.85235234 </i>
    <i name="e_0_energy">   -349.87316816 </i>
   </energy>
  </scstep>
  <scstep>
   <time name="diag">    4.43    4.43</time>
   <time name="diis">    9.23    9.24</time>
   <time name="orth">    0.86    0.86</time>
   <time name="total">   15.70   16.30</time>
   <energy>
    <i name="e_fr_energy">   -349.89526390 </i>
    <i name="e_wo_entrp">   -349.85366797 </i>
    <i name="e_0_energy">   -349.87446594 </i>
   </energy>
  </scstep>
  <scstep>
   <time name="diag">    4.43    4.43</time>
   <time name="diis">    8.55    8.55</time>
   <time name="orth">    0.86    0.86</time>
   <time name="total">   15.01   15.03</time>
   <energy>
    <i name="e_fr_energy">   -349.89560191 </i>
    <i name="e_wo_entrp">   -349.85402546 </i>
    <i name="e_0_energy">   -349.87481369 </i>
   </energy>
  </scstep>
  <scstep>
   <time name="diag">    4.43    4.43</time>
   <time name="diis">    8.18    8.18</time>
   <time name="orth">    0.86    0.86</time>
   <time name="total">   13.76   13.78</time>
   <energy>
    <i name="alphaZ">    609.44296926 </i>
    <i name="ewald">  60570.86908023 </i>
    <i name="hartreedc"> -81954.37569246 </i>
    <i name="XCdc">    393.11303446 </i>
    <i name="pawpsdc">  27476.94060869 </i>
    <i name="pawaedc"> -26813.72600806 </i>
    <i name="eentropy">     -0.04156954 </i>
    <i name="bandstr">  -1745.63849202 </i>
    <i name="atom">  21113.52039259 </i>
    <i name="e_fr_energy">   -349.89567686 </i>
    <i name="e_wo_entrp">   -349.85410732 </i>
    <i name="e_0_energy">   -349.87489209 </i>
   </energy>
  </scstep>
  <structure>
   <crystal>
    <varray name="basis" >
     <v>       0.00000000       0.00000000       6.22358237 </v>
     <v>       4.49629428      -4.49629428       0.00000000 </v>
     <v>      15.56204978      15.56204978       0.00000000 </v>
    </varray>
    <i name="volume">    870.94747731 </i>
    <varray name="rec_basis" >
     <v>       0.00000000       0.00000000       0.16067916 </v>
     <v>       0.11120269      -0.11120269       0.00000000 </v>
     <v>       0.03212944       0.03212944       0.00000000 </v>
    </varray>
   </crystal>
   <varray name="positions" >
    <v>       0.33911189       0.07924319       0.05611538 </v>
    <v>       0.83911189       0.07924319       0.05611538 </v>
    <v>       0.33911189       0.46768319       0.05611538 </v>
    <v>       0.83911189       0.46768319       0.05611538 </v>
    <v>       0.08911189       0.77346319       0.11223075 </v>
    <v>       0.58911189       0.77346319       0.11223075 </v>
    <v>       0.08911189       0.27346319       0.14446343 </v>
    <v>       0.58911189       0.27346319       0.14446343 </v>
    <v>       0.33911189       0.57924319       0.20057881 </v>
    <v>       0.83911189       0.57924319       0.20057881 </v>
    <v>       0.33911189       0.96768319       0.20057881 </v>
    <v>       0.83911189       0.96768319       0.20057881 </v>
    <v>       0.08911189       0.27346319       0.25669419 </v>
    <v>       0.58911189       0.27346319       0.25669419 </v>
    <v>       0.08911357       0.77346658       0.28889013 </v>
    <v>       0.58911149       0.77346658       0.28889011 </v>
    <v>       0.33910917       0.07931092       0.34505950 </v>
    <v>       0.83910925       0.07931197       0.34505953 </v>
    <v>       0.33911288       0.46760561       0.34505938 </v>
    <v>       0.83911295       0.46760456       0.34505941 </v>
    <v>       0.08911270       0.77346891       0.40126547 </v>
    <v>       0.58911000       0.77346891       0.40126544 </v>
    <v>       0.08911048       0.27346854       0.43324605 </v>
    <v>       0.58910989       0.27346854       0.43324615 </v>
    <v>       0.33910984       0.57998798       0.48977811 </v>
    <v>       0.83911001       0.57998792       0.48977816 </v>
    <v>       0.33911840       0.96692879       0.48977924 </v>
    <v>       0.83911856       0.96692884       0.48977929 </v>
    <v>       0.08911139       0.27346450       0.54486244 </v>
    <v>       0.58911075       0.27346451       0.54486236 </v>
    <v>       0.08911189       0.77346319       0.00000000 </v>
    <v>       0.58911189       0.77346319       0.00000000 </v>
    <v>       0.08911189       0.27346319       0.05611538 </v>
    <v>       0.58911189       0.27346319       0.05611538 </v>
    <v>       0.33911189       0.77346319       0.05611538 </v>
    <v>       0.83911189       0.77346319       0.05611538 </v>
    <v>       0.33911189       0.27346319       0.20057881 </v>
    <v>       0.83911189       0.27346319       0.20057881 </v>
    <v>       0.08911189       0.77346319       0.20057881 </v>
    <v>       0.58911189       0.77346319       0.20057881 </v>
    <v>       0.08911152       0.27346193       0.34502276 </v>
    <v>       0.58911297       0.27346193       0.34502277 </v>
    <v>       0.33910942       0.77346279       0.34523001 </v>
    <v>       0.83910944       0.77346279       0.34522973 </v>
    <v>       0.33911205       0.27346318       0.49047849 </v>
    <v>       0.83911141       0.27346318       0.49047820 </v>
    <v>       0.08911376       0.77346180       0.48868641 </v>
    <v>       0.58911351       0.77346180       0.48868650 </v>
   </varray>
  </structure>
  <varray name="forces" >
   <v>      -0.09497251      -0.79046270      -0.00382805 </v>
   <v>      -0.09495675      -0.79047316      -0.00051560 </v>
   <v>      -0.79379368      -0.08963692      -0.00144870 </v>
   <v>      -0.79380242      -0.08962355       0.00186424 </v>
   <v>       0.24163398       0.23769544      -0.00011203 </v>
   <v>       0.24201093       0.23807187      -0.00016872 </v>
   <v>      -0.16771489      -0.16865456      -0.00092678 </v>
   <v>      -0.16564947      -0.16659007      -0.00086631 </v>
   <v>       0.00523016      -0.05958511      -0.00048943 </v>
   <v>       0.00521519      -0.05954530      -0.00103587 </v>
   <v>      -0.05927213       0.00478548       0.00556443 </v>
   <v>      -0.05923324       0.00477062       0.00501783 </v>
   <v>       0.07935420       0.07876103      -0.00098096 </v>
   <v>       0.07946880       0.07887527      -0.00088490 </v>
   <v>      -0.00646972      -0.00938228      -0.00035168 </v>
   <v>      -0.00658791      -0.00949990      -0.00022528 </v>
   <v>       0.05280606       0.00179744      -0.00109399 </v>
   <v>       0.05270772       0.00189941      -0.00163677 </v>
   <v>      -0.00280635       0.05639908       0.00075603 </v>
   <v>      -0.00270618       0.05629959       0.00021244 </v>
   <v>       0.07896208       0.07416812      -0.00036886 </v>
   <v>       0.07798331       0.07318854      -0.00013879 </v>
   <v>      -0.07859557      -0.08197771      -0.00053825 </v>
   <v>      -0.07904838      -0.08242943      -0.00023829 </v>
   <v>       0.67982571       0.11118149      -0.00184755 </v>
   <v>       0.67973268       0.11120811      -0.00035623 </v>
   <v>       0.11118558       0.68319100       0.00254243 </v>
   <v>       0.11121365       0.68309884       0.00403476 </v>
   <v>      -0.92867040      -0.93231583       0.00045438 </v>
   <v>      -0.92867564      -0.93232226       0.00081416 </v>
   <v>       1.21142980       1.20673230       0.00003337 </v>
   <v>       1.21149092       1.20679173      -0.00004757 </v>
   <v>       1.31902347       1.32085580       0.00016896 </v>
   <v>       1.31551925       1.31735235       0.00019172 </v>
   <v>      -1.55818107      -1.55712938       0.00004665 </v>
   <v>      -1.55812052      -1.55706890      -0.00024340 </v>
   <v>      -0.31885857      -0.31895477      -0.00122912 </v>
   <v>      -0.31887199      -0.31896813      -0.00044707 </v>
   <v>       0.04050903       0.03957058       0.00150336 </v>
   <v>       0.04032419       0.03938553       0.00145076 </v>
   <v>      -0.00365914      -0.00104004      -0.00003996 </v>
   <v>      -0.00350971      -0.00089143      -0.00044978 </v>
   <v>       0.16580201       0.16588724      -0.00001826 </v>
   <v>       0.16586714       0.16595227       0.00040745 </v>
   <v>       1.11256863       1.11088114      -0.00103407 </v>
   <v>       1.11284563       1.11115626      -0.00096251 </v>
   <v>      -1.08511322      -1.08253963      -0.00124922 </v>
   <v>      -1.08344065      -1.08086552      -0.00128895 </v>
  </varray>
  <varray name="stress" >
   <v>      -7.30357416     -11.34332459       0.02747148 </v>
   <v>     -11.34332460      -7.31716086      -0.00750064 </v>
   <v>       0.02747152      -0.00750047     -23.26287172 </v>
  </varray>
  <energy>
   <i name="e_fr_energy">   -358.79766438 </i>
   <i name="e_wo_entrp">   -358.77687961 </i>
   <i name="e_0_energy">     -0.04156954 </i>
  </energy>
  <time name="totalsc">  381.47  385.71</time>
 </calculation>
 <calculation>
  <scstep>
   <time name="dav">   26.89   26.91</time>
   <time name="total">   28.06   28.09</time>
   <energy>
    <i name="alphaZ">    609.44296926 </i>
    <i name="ewald">  60586.11150702 </i>
    <i name="hartreedc"> -81967.60504153 </i>
    <i name="XCdc">    393.25609310 </i>
    <i name="pawpsdc">  27476.92376176 </i>
    <i name="pawaedc"> -26813.70869716 </i>
    <i name="eentropy">     -0.04189522 </i>
    <i name="bandstr">  -1747.95952500 </i>
    <i name="atom">  21113.52039259 </i>
    <i name="e_fr_energy">   -350.06043519 </i>
    <i name="e_wo_entrp">   -350.01853996 </i>
    <i name="e_0_energy">   -350.03948757 </i>
   </energy>
  </scstep>
  <scstep>
   <time name="diag">    4.42    4.43</time>
   <time name="diis">   14.90   14.91</time>
   <time name="orth">    0.86    0.86</time>
   <time name="total">   21.36   21.91</time>
   <energy>
    <i name="e_fr_energy">   -350.75557816 </i>
    <i name="e_wo_entrp">   -350.71528776 </i>
    <i name="e_0_energy">   -350.73543296 </i>
   </energy>
  </scstep>
  <scstep>
   <time name="diag">    4.43    4.43</time>
   <time name="diis">   14.94   14.95</time>
   <time name="orth">    0.86    0.86</time>
   <time name="total">   21.40   21.74</time>
   <energy>
    <i name="e_fr_energy">   -350.11687107 </i>
    <i name="e_wo_entrp">   -350.07394865 </i>
    <i name="e_0_energy">   -350.09540986 </i>
   </energy>
  </scstep>
  <scstep>
   <time name="diag">    4.44    4.44</time>
   <time name="diis">   14.92   14.92</time>
   <time name="orth">    0.86    0.86</time>
   <time name="total">   21.39   21.92</time>
   <energy>
    <i name="e_fr_energy">   -350.10465732 </i>
    <i name="e_wo_entrp">   -350.06663519 </i>
    <i name="e_0_energy">   -350.08564625 </i>
   </energy>
  </scstep>
  <scstep>
   <time name="diag">    4.43    4.43</time>
   <time name="diis">   14.87   14.87</time>
   <time name="orth">    0.86    0.86</time>
   <time name="total">   21.33   21.52</time>
   <energy>
    <i name="e_fr_energy">   -350.08912151 </i>
    <i name="e_wo_entrp">   -350.04685825 </i>
    <i name="e_0_energy">   -350.06798988 </i>
   </energy>
  </scstep>
  <scstep>
   <time name="diag">    4.43    4.43</time>
   <time name="diis">   14.94   14.95</time>
   <time name="orth">    0.86    0.86</time>
   <time name="total">   21.40   21.41</time>
   <energy>
    <i name="e_fr_energy">   -350.08147869 </i>
    <i name="e_wo_entrp">   -350.04053194 </i>
    <i name="e_0_energy">   -350.06100531 </i>
   </energy>
  </scstep>
  <scstep>
   <time name="diag">    4.42    4.43</time>
   <time name="diis">   14.90   14.92</time>
   <time name="orth">    0.86    0.86</time>
   <time name="total">   21.35   21.89</time>
   <energy>
    <i name="e_fr_energy">   -350.07021905 </i>
    <i name="e_wo_entrp">   -350.02873349 </i>
    <i name="e_0_energy">   -350.04947627 </i>
   </energy>
  </scstep>
  <scstep>
   <time name="diag">    4.43    4.43</time>
   <time name="diis">   14.21   14.21</time>
   <time name="orth">    0.86    0.86</time>
   <time name="total">   20.66   20.67</time>
   <energy>
    <i name="e_fr_energy">   -350.07075156 </i>
    <i name="e_wo_entrp">   -350.02900073 </i>
    <i name="e_0_energy">   -350.04987615 </i>
   </energy>
  </scstep>
  <scstep>
   <time name="diag">    4.42    4.42</time>
   <time name="diis">   13.52   13.52</time>
   <time name="orth">    0.86    0.86</time>
   <time name="total">   19.96   19.97</time>
   <energy>
    <i name="e_fr_energy">   -350.07062774 </i>
    <i name="e_wo_entrp">   -350.02864240 </i>
    <i name="e_0_energy">   -350.04963507 </i>
   </energy>
  </scstep>
  <scstep>
   <time name="diag">    4.42    4.42</time>
   <time name="diis">   12.15   12.16</time>
   <time name="orth">    0.86    0.86</time>
   <time name="total">   18.60   18.62</time>
   <energy>
    <i name="e_fr_energy">   -350.07074796 </i>
    <i name="e_wo_entrp">   -350.02896756 </i>
    <i name="e_0_energy">   -350.04985776 </i>
   </energy>
  </scstep>
  <scstep>
   <time name="diag">    4.42    4.42</time>
   <time name="diis">   10.50   10.51</time>
   <time name="orth">    0.86    0.86</time>
   <time name="total">   16.08   16.54</time>
   <energy>
    <i name="alphaZ">    609.44296926 </i>
    <i name="ewald">  60586.11150702 </i>
    <i name="hartreedc"> -81974.29034608 </i>
    <i name="XCdc">    393.32218664 </i>
    <i name="pawpsdc">  27525.75696711 </i>
    <i name="pawaedc"> -26862.77522036 </i>
    <i name="eentropy">     -0.04190913 </i>
    <i name="bandstr">  -1741.11731795 </i>
    <i name="atom">  21113.52039259 </i>
    <i name="e_fr_energy">   -350.07077090 </i>
    <i name="e_wo_entrp">   -350.02886177 </i>
    <i name="e_0_energy">   -350.04981634 </i>
   </energy>
  </scstep>
  <structure>
   <crystal>
    <varray name="basis" >
     <v>       0.00000000       0.00000000       6.22358237 </v>
     <v>       4.49629428      -4.49629428       0.00000000 </v>
     <v>      15.56204978      15.56204978       0.00000000 </v>
    </varray>
    <i name="volume">    870.94747731 </i>
    <varray name="rec_basis" >
     <v>       0.00000000       0.00000000       0.16067916 </v>
     <v>       0.11120269      -0.11120269       0.00000000 </v>
     <v>       0.03212944       0.03212944       0.00000000 </v>
    </varray>
   </crystal>
   <varray name="positions" >
    <v>       0.33911189       0.07924319       0.05611538 </v>
    <v>       0.83911189       0.07924319       0.05611538 </v>
    <v>       0.33911189       0.46768319       0.05611538 </v>
    <v>       0.83911189       0.46768319       0.05611538 </v>
    <v>       0.08911189       0.77346319       0.11223075 </v>
    <v>       0.58911189       0.77346319       0.11223075 </v>
    <v>       0.08911189       0.27346319       0.14446343 </v>
    <v>       0.58911189       0.27346319       0.14446343 </v>
    <v>       0.33911189       0.57924319       0.20057881 </v>
    <v>       0.83911189       0.57924319       0.20057881 </v>
    <v>       0.33911189       0.96768319       0.20057881 </v>
    <v>       0.83911189       0.96768319       0.20057881 </v>
    <v>       0.08911189       0.27346319       0.25669419 </v>
    <v>       0.58911189       0.27346319       0.25669419 </v>
    <v>       0.08911551       0.77347051       0.28884749 </v>
    <v>       0.58911102       0.77347051       0.28884745 </v>
    <v>       0.33910601       0.07938952       0.34507952 </v>
    <v>       0.83910618       0.07939179       0.34507958 </v>
    <v>       0.33911401       0.46751557       0.34507927 </v>
    <v>       0.83911419       0.46751331       0.34507933 </v>
    <v>       0.08911363       0.77347554       0.40139062 </v>
    <v>       0.58910780       0.77347553       0.40139056 </v>
    <v>       0.08910885       0.27347474       0.43307865 </v>
    <v>       0.58910757       0.27347475       0.43307887 </v>
    <v>       0.33910746       0.58085225       0.49009425 </v>
    <v>       0.83910783       0.58085213       0.49009435 </v>
    <v>       0.33912595       0.96605335       0.49009669 </v>
    <v>       0.83912629       0.96605347       0.49009679 </v>
    <v>       0.08911081       0.27346601       0.54398212 </v>
    <v>       0.58910942       0.27346603       0.54398195 </v>
    <v>       0.08911189       0.77346319       0.00000000 </v>
    <v>       0.58911189       0.77346319       0.00000000 </v>
    <v>       0.08911189       0.27346319       0.05611538 </v>
    <v>       0.58911189       0.27346319       0.05611538 </v>
    <v>       0.33911189       0.77346319       0.05611538 </v>
    <v>       0.83911189       0.77346319       0.05611538 </v>
    <v>       0.33911189       0.27346319       0.20057881 </v>
    <v>       0.83911189       0.27346319       0.20057881 </v>
    <v>       0.08911189       0.77346319       0.20057881 </v>
    <v>       0.58911189       0.77346319       0.20057881 </v>
    <v>       0.08911108       0.27346045       0.34500016 </v>
    <v>       0.58911421       0.27346046       0.34500017 </v>
    <v>       0.33910654       0.77346231       0.34544791 </v>
    <v>       0.83910659       0.77346231       0.34544729 </v>
    <v>       0.33911223       0.27346317       0.49160737 </v>
    <v>       0.83911086       0.27346316       0.49160676 </v>
    <v>       0.08911593       0.77346018       0.48773570 </v>
    <v>       0.58911538       0.77346018       0.48773590 </v>
   </varray>
  </structure>
  <varray name="forces" >
   <v>      -0.09435824      -0.79309762      -0.00195833 </v>
   <v>      -0.09435007      -0.79309811      -0.00190147 </v>
   <v>      -0.79678860      -0.08866985       0.00042222 </v>
   <v>      -0.79678900      -0.08866179       0.00047899 </v>
   <v>       0.25038948       0.24687523       0.00011157 </v>
   <v>       0.25039805       0.24688369       0.00010123 </v>
   <v>      -0.16535993      -0.16590294      -0.00070129 </v>
   <v>      -0.16532115      -0.16586446      -0.00059573 </v>
   <v>       0.00558778      -0.06067164      -0.00051099 </v>
   <v>       0.00558287      -0.06061036      -0.00052119 </v>
   <v>      -0.06073951       0.00545303       0.00554714 </v>
   <v>      -0.06067819       0.00544826       0.00553696 </v>
   <v>       0.09801403       0.09790712      -0.00075551 </v>
   <v>       0.09801675       0.09790984      -0.00060888 </v>
   <v>       0.05371873       0.05129674      -0.00089398 </v>
   <v>       0.05373197       0.05131163      -0.00051106 </v>
   <v>       0.04722303       0.00007643      -0.00092482 </v>
   <v>       0.04691539       0.00035631      -0.00093840 </v>
   <v>      -0.00335099       0.04977613      -0.00005941 </v>
   <v>      -0.00307145       0.04946668      -0.00007422 </v>
   <v>      -0.06409970      -0.06814736      -0.00006673 </v>
   <v>      -0.06405857      -0.06810608       0.00049447 </v>
   <v>       0.06790679       0.06593447      -0.00088859 </v>
   <v>       0.06781494       0.06584435      -0.00081308 </v>
   <v>       0.53808556       0.13994240      -0.00082186 </v>
   <v>       0.53803207       0.13987346      -0.00084592 </v>
   <v>       0.14273082       0.53501561       0.00210536 </v>
   <v>       0.14266187       0.53496227       0.00208317 </v>
   <v>      -0.48960756      -0.49339087      -0.00034018 </v>
   <v>      -0.48951289      -0.49329482      -0.00027585 </v>
   <v>       1.20149637       1.19720930       0.00025193 </v>
   <v>       1.20149559       1.19720860       0.00022291 </v>
   <v>       1.32337824       1.32560068       0.00041482 </v>
   <v>       1.32330219       1.32552472       0.00043479 </v>
   <v>      -1.55485574      -1.55343499       0.00014775 </v>
   <v>      -1.55485018      -1.55342945       0.00014888 </v>
   <v>      -0.33516553      -0.33489257      -0.00060907 </v>
   <v>      -0.33520791      -0.33493493      -0.00058415 </v>
   <v>       0.04407548       0.04342954       0.00181015 </v>
   <v>       0.04406840       0.04342244       0.00168621 </v>
   <v>       0.04269832       0.04686563       0.00062034 </v>
   <v>       0.04269684       0.04686235      -0.00028748 </v>
   <v>       0.00325001       0.00386533      -0.00047249 </v>
   <v>       0.00340508       0.00402058      -0.00047944 </v>
   <v>       0.50143595       0.50227137      -0.00017809 </v>
   <v>       0.50151126       0.50234602       0.00028626 </v>
   <v>      -0.75570429      -0.75335168      -0.00267878 </v>
   <v>      -0.75575433      -0.75340067      -0.00260816 </v>
  </varray>
  <varray name="stress" >
   <v>      -5.19733536     -10.07344874       0.01318495 </v>
   <v>     -10.07344887      -5.19821039      -0.00627282 </v>
   <v>       0.01318508      -0.00627281     -21.62416102 </v>
  </varray>
  <energy>
   <i name="e_fr_energy">   -358.97186845 </i>
   <i name="e_wo_entrp">   -358.95091388 </i>
   <i name="e_0_energy">     -0.04190913 </i>
  </energy>
  <time name="totalsc">  261.49  264.62</time>
 </calculation>
 <calculation>
  <scstep>
   <time name="dav">   26.61   26.62</time>
   <time name="total">   27.79   27.79</time>
   <energy>
    <i name="alphaZ">    609.44296926 </i>
    <i name="ewald">  60615.79050835 </i>
    <i name="hartreedc"> -81999.35542662 </i>
    <i name="XCdc">    393.61792344 </i>
    <i name="pawpsdc">  27525.86206447 </i>
    <i name="pawaedc"> -26862.88298336 </i>
    <i name="eentropy">     -0.04514980 </i>
    <i name="bandstr">  -1746.04862581 </i>
    <i name="atom">  21113.52039259 </i>
    <i name="e_fr_energy">   -350.09832749 </i>
    <i name="e_wo_entrp">   -350.05317769 </i>
    <i name="e_0_energy">   -350.07575259 </i>
   </energy>
  </scstep>
  <scstep>
   <time name="diag">    4.43    4.43</time>
   <time name="diis">   14.83   14.83</time>
   <time name="orth">    0.86    0.86</time>
   <time name="total">   21.29   21.30</time>
   <energy>
    <i name="e_fr_energy">   -356.35088035 </i>
    <i name="e_wo_entrp">   -356.31115705 </i>
    <i name="e_0_energy">   -356.33101870 </i>
   </energy>
  </scstep>
  <scstep>
   <time name="diag">    4.43    4.43</time>
   <time name="diis">   14.88   14.89</time>
   <time name="orth">    0.86    0.86</time>
   <time name="total">   21.34   22.75</time>
   <energy>
    <i name="e_fr_energy">   -350.87974583 </i>
    <i name="e_wo_entrp">   -350.84391160 </i>
    <i name="e_0_energy">   -350.86182871 </i>
   </energy>
  </scstep>
  <scstep>
   <time name="diag">    4.43    4.43</time>
   <time name="diis">   14.85   14.86</time>
   <time name="orth">    0.86    0.86</time>
   <time name="total">   21.32   21.75</time>
   <energy>
    <i name="e_fr_energy">   -350.54700974 </i>
    <i name="e_wo_entrp">   -350.50232145 </i>
    <i name="e_0_energy">   -350.52466560 </i>
   </energy>
  </scstep>
  <scstep>
   <time name="diag">    4.42    4.43</time>
   <time name="diis">   14.84   14.84</time>
   <time name="orth">    0.86    0.86</time>
   <time name="total">   21.29   21.30</time>
   <energy>
    <i name="e_fr_energy">   -350.27131653 </i>
    <i name="e_wo_entrp">   -350.23670897 </i>
    <i name="e_0_energy">   -350.25401275 </i>
   </energy>
  </scstep>
  <scstep>
   <time name="diag">    4.42    4.43</time>
   <time name="diis">   14.89   14.90</time>
   <time name="orth">    0.86    0.86</time>
   <time name="total">   21.35   21.44</time>
   <energy>
    <i name="e_fr_energy">   -350.21871658 </i>
    <i name="e_wo_entrp">   -350.17960680 </i>
    <i name="e_0_energy">   -350.19916169 </i>
   </energy>
  </scstep>
  <scstep>
   <time name="diag">    4.43    4.43</time>
   <time name="diis">   14.88   14.88</time>
   <time name="orth">    0.86    0.86</time>
   <time name="total">   21.34   21.90</time>
   <energy>
    <i name="e_fr_energy">   -350.14914175 </i>
    <i name="e_wo_entrp">   -350.10686552 </i>
    <i name="e_0_energy">   -350.12800363 </i>
   </energy>
  </scstep>
  <scstep>
   <time name="diag">    4.43    4.44</time>
   <time name="diis">   14.90   14.90</time>
   <time name="orth">    0.86    0.86</time>
   <time name="total">   21.35   21.37</time>
   <energy>
    <i name="e_fr_energy">   -350.11610508 </i>
    <i name="e_wo_entrp">   -350.07070760 </i>
    <i name="e_0_energy">   -350.09340634 </i>
   </energy>
  </scstep>
  <scstep>
   <time name="diag">    4.43    4.43</time>
   <time name="diis">   14.85   14.85</time>
   <time name="orth">    0.86    0.86</time>
   <time name="total">   21.30   21.32</time>
   <energy>
    <i name="e_fr_energy">   -350.09057409 </i>
    <i name="e_wo_entrp">   -350.04570289 </i>
    <i name="e_0_energy">   -350.06813849 </i>
   </energy>
  </scstep>
  <scstep>
   <time name="diag">    4.43    4.43</time>
   <time name="diis">   14.92   14.93</time>
   <time name="orth">    0.86    0.86</time>
   <time name="total">   21.38   21.40</time>
   <energy>
    <i name="e_fr_energy">   -350.09697096 </i>
    <i name="e_wo_entrp">   -350.04874383 </i>
    <i name="e_0_energy">   -350.07285739 </i>
   </energy>
  </scstep>
  <scstep>
   <time name="diag">    4.43    4.43</time>
   <time name="diis">   14.73   14.74</time>
   <time name="orth">    0.86    0.86</time>
   <time name="total">   21.18   21.76</time>
   <energy>
    <i name="e_fr_energy">   -350.09862652 </i>
    <i name="e_wo_entrp">   -350.05059443 </i>
    <i name="e_0_energy">   -350.07461047 </i>
   </energy>
  </scstep>
  <scstep>
   <time name="diag">    4.42    4.42</time>
   <time name="diis">   14.06   14.06</time>
   <time name="orth">    0.86    0.86</time>
   <time name="total">   20.51   20.87</time>
   <energy>
    <i name="e_fr_energy">   -350.10369643 </i>
    <i name="e_wo_entrp">   -350.05483653 </i>
    <i name="e_0_energy">   -350.07926648 </i>
   </energy>
  </scstep>
  <scstep>
   <time name="diag">    4.42    4.42</time>
   <time name="diis">   12.28   12.29</time>
   <time name="orth">    0.86    0.86</time>
   <time name="total">   18.74   18.76</time>
   <energy>
    <i name="e_fr_energy">   -350.10584085 </i>
    <i name="e_wo_entrp">   -350.05726661 </i>
    <i name="e_0_energy">   -350.08155373 </i>
   </energy>
  </scstep>
  <scstep>
   <time name="diag">    4.42    4.42</time>
   <time name="diis">   13.14   13.16</time>
   <time name="orth">    0.86    0.86</time>
   <time name="total">   19.60   19.77</time>
   <energy>
    <i name="e_fr_energy">   -350.11048513 </i>
    <i name="e_wo_entrp">   -350.06138019 </i>
    <i name="e_0_energy">   -350.08593266 </i>
   </energy>
  </scstep>
  <scstep>
   <time name="diag">    4.42    4.42</time>
   <time name="diis">   13.61   13.62</time>
   <time name="orth">    0.86    0.86</time>
   <time name="total">   20.06   20.59</time>
   <energy>
    <i name="e_fr_energy">   -350.10996532 </i>
[...]
       <r>   -19.1691     0.0000     0.0000 </r>
       <r>   -19.0644     0.0000     0.0000 </r>
       <r>   -18.9597     0.0000     0.0000 </r>
       <r>   -18.8550     0.0000     0.0000 </r>
       <r>   -18.7503     0.0178     0.0019 </r>
       <r>   -18.6456     0.6559     0.0705 </r>
       <r>   -18.5409     2.2414     0.3052 </r>
       <r>   -18.4363     3.4770     0.6692 </r>
       <r>   -18.3316     2.8225     0.9647 </r>
       <r>   -18.2269     5.5179     1.5424 </r>
       <r>   -18.1222     6.9166     2.2666 </r>
       <r>   -18.0175     8.9522     3.2039 </r>
       <r>   -17.9128    14.6522     4.7379 </r>
       <r>   -17.8081    10.7275     5.8610 </r>
       <r>   -17.7034    14.0993     7.3372 </r>
       <r>   -17.5987    21.3530     9.5728 </r>
       <r>   -17.4940    23.0140    11.9823 </r>
       <r>   -17.3893    23.3613    14.4282 </r>
       <r>   -17.2846    22.2535    16.7580 </r>
       <r>   -17.1799    27.5807    19.6456 </r>
       <r>   -17.0752    32.5039    23.0487 </r>
       <r>   -16.9705    28.3984    26.0219 </r>
       <r>   -16.8658    13.9911    27.4868 </r>
       <r>   -16.7611     3.7759    27.8821 </r>
       <r>   -16.6564     1.0835    27.9955 </r>
       <r>   -16.5517     1.0542    28.1059 </r>
       <r>   -16.4470     9.6874    29.1202 </r>
       <r>   -16.3423     4.3115    29.5716 </r>
       <r>   -16.2376     3.8620    29.9759 </r>
       <r>   -16.1329     0.2302    30.0000 </r>
       <r>   -16.0282     0.0000    30.0000 </r>
       <r>   -15.9235     0.0000    30.0000 </r>
       <r>   -15.8188     0.0339    30.0036 </r>
       <r>   -15.7141     6.6643    30.7013 </r>
       <r>   -15.6094    11.9672    31.9542 </r>
       <r>   -15.5047     0.4373    32.0000 </r>
       <r>   -15.4000     0.0000    32.0000 </r>
       <r>   -15.2953     0.0000    32.0000 </r>
       <r>   -15.1906     0.0000    32.0000 </r>
       <r>   -15.0859     0.0000    32.0000 </r>
       <r>   -14.9812     0.0000    32.0000 </r>
       <r>   -14.8765     0.0000    32.0000 </r>
       <r>   -14.7719     0.0000    32.0000 </r>
       <r>   -14.6672     0.0000    32.0000 </r>
       <r>   -14.5625     0.0000    32.0000 </r>
       <r>   -14.4578     0.0000    32.0000 </r>
       <r>   -14.3531     0.0000    32.0000 </r>
       <r>   -14.2484     0.0000    32.0000 </r>
       <r>   -14.1437     0.0000    32.0000 </r>
       <r>   -14.0390     0.0000    32.0000 </r>
       <r>   -13.9343     0.0000    32.0000 </r>
       <r>   -13.8296     0.0000    32.0000 </r>
       <r>   -13.7249     0.0000    32.0000 </r>
       <r>   -13.6202     0.0000    32.0000 </r>
       <r>   -13.5155     0.0000    32.0000 </r>
       <r>   -13.4108     0.0000    32.0000 </r>
       <r>   -13.3061     0.0000    32.0000 </r>
       <r>   -13.2014     0.0000    32.0000 </r>
       <r>   -13.0967     0.0000    32.0000 </r>
       <r>   -12.9920     0.0000    32.0000 </r>
       <r>   -12.8873     0.0000    32.0000 </r>
       <r>   -12.7826     0.0000    32.0000 </r>
       <r>   -12.6779     0.0000    32.0000 </r>
       <r>   -12.5732     0.0000    32.0000 </r>
       <r>   -12.4685     0.0000    32.0000 </r>
       <r>   -12.3638     0.0000    32.0000 </r>
       <r>   -12.2591     0.0000    32.0000 </r>
       <r>   -12.1544     0.0000    32.0000 </r>
       <r>   -12.0497     0.0000    32.0000 </r>
       <r>   -11.9450     0.0000    32.0000 </r>
       <r>   -11.8403     0.0000    32.0000 </r>
       <r>   -11.7356     0.0000    32.0000 </r>
       <r>   -11.6309     0.0000    32.0000 </r>
       <r>   -11.5262     0.0000    32.0000 </r>
       <r>   -11.4215     0.0000    32.0000 </r>
       <r>   -11.3168     0.0000    32.0000 </r>
       <r>   -11.2121     0.0000    32.0000 </r>
       <r>   -11.1075     0.0000    32.0000 </r>
       <r>   -11.0028     0.0000    32.0000 </r>
       <r>   -10.8981     0.0000    32.0000 </r>
       <r>   -10.7934     0.0000    32.0000 </r>
       <r>   -10.6887     0.0000    32.0000 </r>
       <r>   -10.5840     0.0000    32.0000 </r>
       <r>   -10.4793     0.0000    32.0000 </r>
       <r>   -10.3746     0.0000    32.0000 </r>
       <r>   -10.2699     0.0000    32.0000 </r>
       <r>   -10.1652     0.0000    32.0000 </r>
       <r>   -10.0605     0.0000    32.0000 </r>
       <r>    -9.9558     0.0000    32.0000 </r>
       <r>    -9.8511     0.0000    32.0000 </r>
       <r>    -9.7464     0.0000    32.0000 </r>
       <r>    -9.6417     0.0000    32.0000 </r>
       <r>    -9.5370     0.0000    32.0000 </r>
       <r>    -9.4323     0.0000    32.0000 </r>
       <r>    -9.3276     0.0000    32.0000 </r>
       <r>    -9.2229     0.0000    32.0000 </r>
       <r>    -9.1182     0.0000    32.0000 </r>
       <r>    -9.0135     0.0000    32.0000 </r>
       <r>    -8.9088     0.0000    32.0000 </r>
       <r>    -8.8041     0.0000    32.0000 </r>
       <r>    -8.6994     0.0000    32.0000 </r>
       <r>    -8.5947     0.0000    32.0000 </r>
       <r>    -8.4900     0.0000    32.0000 </r>
       <r>    -8.3853     0.0000    32.0000 </r>
       <r>    -8.2806     0.0000    32.0000 </r>
       <r>    -8.1759     0.0000    32.0000 </r>
       <r>    -8.0712     0.0000    32.0000 </r>
       <r>    -7.9665     0.0000    32.0000 </r>
       <r>    -7.8618     0.0000    32.0000 </r>
       <r>    -7.7571     0.0000    32.0000 </r>
       <r>    -7.6524     0.0000    32.0000 </r>
       <r>    -7.5477     0.0000    32.0000 </r>
       <r>    -7.4431     0.0000    32.0000 </r>
       <r>    -7.3384     0.0000    32.0000 </r>
       <r>    -7.2337     0.0000    32.0000 </r>
       <r>    -7.1290     0.0000    32.0000 </r>
       <r>    -7.0243     0.0001    32.0000 </r>
       <r>    -6.9196     0.1542    32.0162 </r>
       <r>    -6.8149     1.2816    32.1503 </r>
       <r>    -6.7102     3.8551    32.5540 </r>
       <r>    -6.6055     4.7702    33.0534 </r>
       <r>    -6.5008     4.7292    33.5485 </r>
       <r>    -6.3961     3.3148    33.8956 </r>
       <r>    -6.2914     8.0426    34.7376 </r>
       <r>    -6.1867     8.9164    35.6711 </r>
       <r>    -6.0820     9.1150    36.6254 </r>
       <r>    -5.9773     2.1799    36.8537 </r>
       <r>    -5.8726    10.4083    37.9434 </r>
       <r>    -5.7679    13.5912    39.3663 </r>
       <r>    -5.6632    17.6360    41.2128 </r>
       <r>    -5.5585    24.4875    43.7765 </r>
       <r>    -5.4538    23.0447    46.1893 </r>
       <r>    -5.3491    34.4330    49.7943 </r>
       <r>    -5.2444    37.4170    53.7118 </r>
       <r>    -5.1397    36.7168    57.5559 </r>
       <r>    -5.0350    17.1692    59.3535 </r>
       <r>    -4.9303    14.6203    60.8842 </r>
       <r>    -4.8256    11.6738    62.1064 </r>
       <r>    -4.7209    13.2750    63.4962 </r>
       <r>    -4.6162    12.3380    64.7880 </r>
       <r>    -4.5115    10.3876    65.8755 </r>
       <r>    -4.4068     6.6524    66.5720 </r>
       <r>    -4.3021     6.8763    67.2920 </r>
       <r>    -4.1974    13.7555    68.7321 </r>
       <r>    -4.0927    11.8749    69.9754 </r>
       <r>    -3.9880    19.6331    72.0309 </r>
       <r>    -3.8833    13.8111    73.4769 </r>
       <r>    -3.7787    13.1623    74.8550 </r>
       <r>    -3.6740    14.0603    76.3270 </r>
       <r>    -3.5693    12.1328    77.5973 </r>
       <r>    -3.4646    19.6803    79.6578 </r>
       <r>    -3.3599    14.5115    81.1771 </r>
       <r>    -3.2552    17.0849    82.9658 </r>
       <r>    -3.1505    24.4189    85.5224 </r>
       <r>    -3.0458    17.6876    87.3743 </r>
       <r>    -2.9411    19.0558    89.3694 </r>
       <r>    -2.8364    28.5550    92.3590 </r>
       <r>    -2.7317    24.6841    94.9433 </r>
       <r>    -2.6270    21.8951    97.2357 </r>
       <r>    -2.5223    21.1892    99.4541 </r>
       <r>    -2.4176    19.0830   101.4521 </r>
       <r>    -2.3129    16.7611   103.2069 </r>
       <r>    -2.2082    18.1809   105.1104 </r>
       <r>    -2.1035    13.8606   106.5616 </r>
       <r>    -1.9988    14.1013   108.0379 </r>
       <r>    -1.8941    11.8665   109.2803 </r>
       <r>    -1.7894    19.2198   111.2926 </r>
       <r>    -1.6847    14.2288   112.7823 </r>
       <r>    -1.5800    17.7451   114.6402 </r>
       <r>    -1.4753    16.4115   116.3584 </r>
       <r>    -1.3706    12.2533   117.6413 </r>
       <r>    -1.2659    15.0125   119.2130 </r>
       <r>    -1.1612    16.7919   120.9711 </r>
       <r>    -1.0565    12.3839   122.2677 </r>
       <r>    -0.9518    10.1064   123.3258 </r>
       <r>    -0.8471    15.2034   124.9175 </r>
       <r>    -0.7424     9.1074   125.8711 </r>
       <r>    -0.6377     7.6227   126.6691 </r>
       <r>    -0.5330     6.6524   127.3656 </r>
       <r>    -0.4283     3.9689   127.7812 </r>
       <r>    -0.3236     1.8427   127.9741 </r>
       <r>    -0.2189     0.2494   128.0002 </r>
       <r>    -0.1143     0.6310   128.0663 </r>
       <r>    -0.0096     1.9609   128.2716 </r>
       <r>     0.0951     8.0652   129.1160 </r>
       <r>     0.1998    14.5512   130.6394 </r>
       <r>     0.3045    13.2195   132.0235 </r>
       <r>     0.4092    11.4428   133.2215 </r>
       <r>     0.5139    16.6887   134.9688 </r>
       <r>     0.6186    17.8154   136.8340 </r>
       <r>     0.7233    14.0252   138.3024 </r>
       <r>     0.8280    25.5608   140.9785 </r>
       <r>     0.9327    34.4895   144.5895 </r>
       <r>     1.0374    25.7552   147.2860 </r>
       <r>     1.1421    25.0709   149.9108 </r>
       <r>     1.2468    24.8414   152.5117 </r>
       <r>     1.3515    22.0062   154.8156 </r>
       <r>     1.4562    18.0996   156.7106 </r>
       <r>     1.5609    16.0488   158.3909 </r>
       <r>     1.6656    14.6367   159.9233 </r>
       <r>     1.7703    12.7948   161.2629 </r>
       <r>     1.8750    15.5473   162.8906 </r>
       <r>     1.9797    13.7347   164.3286 </r>
       <r>     2.0844    23.8177   166.8223 </r>
       <r>     2.1891    14.9999   168.3927 </r>
       <r>     2.2938    15.4889   170.0144 </r>
       <r>     2.3985    13.3513   171.4122 </r>
       <r>     2.5032    18.2525   173.3232 </r>
       <r>     2.6079    13.0926   174.6939 </r>
       <r>     2.7126     8.8263   175.6180 </r>
       <r>     2.8173    11.2474   176.7956 </r>
       <r>     2.9220     9.3645   177.7760 </r>
       <r>     3.0267     8.1693   178.6313 </r>
       <r>     3.1314     7.0966   179.3743 </r>
       <r>     3.2361     3.9970   179.7928 </r>
       <r>     3.3408     2.0597   180.0084 </r>
       <r>     3.4455     1.4394   180.1591 </r>
       <r>     3.5501     2.6917   180.4409 </r>
       <r>     3.6548     3.4390   180.8010 </r>
       <r>     3.7595     3.5663   181.1744 </r>
       <r>     3.8642     6.1209   181.8152 </r>
       <r>     3.9689     7.8505   182.6371 </r>
       <r>     4.0736     9.6858   183.6512 </r>
       <r>     4.1783     8.2668   184.5167 </r>
       <r>     4.2830     5.0831   185.0489 </r>
       <r>     4.3877     3.6800   185.4342 </r>
       <r>     4.4924     4.6638   185.9225 </r>
       <r>     4.5971    10.3968   187.0110 </r>
       <r>     4.7018    12.7637   188.3473 </r>
       <r>     4.8065    12.2446   189.6293 </r>
       <r>     4.9112     7.3711   190.4011 </r>
       <r>     5.0159     6.8096   191.1140 </r>
       <r>     5.1206    14.5844   192.6410 </r>
       <r>     5.2253    13.7856   194.0843 </r>
       <r>     5.3300     9.1355   195.0407 </r>
       <r>     5.4347     7.4390   195.8196 </r>
       <r>     5.5394     8.6269   196.7228 </r>
       <r>     5.6441     9.3868   197.7056 </r>
       <r>     5.7488    19.0691   199.7020 </r>
       <r>     5.8535    16.1054   201.3882 </r>
       <r>     5.9582    11.4541   202.5874 </r>
       <r>     6.0629    14.4262   204.0978 </r>
       <r>     6.1676    12.6623   205.4235 </r>
       <r>     6.2723     6.7364   206.1288 </r>
       <r>     6.3770     8.6382   207.0332 </r>
       <r>     6.4817     6.3354   207.6965 </r>
       <r>     6.5864     2.7320   207.9826 </r>
       <r>     6.6911     1.5986   208.1499 </r>
       <r>     6.7958     0.5265   208.2050 </r>
       <r>     6.9005     3.2899   208.5495 </r>
       <r>     7.0052     5.1872   209.0926 </r>
       <r>     7.1099     2.6452   209.3695 </r>
       <r>     7.2145     1.2683   209.5023 </r>
       <r>     7.3192     0.9810   209.6050 </r>
       <r>     7.4239     2.5037   209.8671 </r>
       <r>     7.5286     2.9787   210.1790 </r>
       <r>     7.6333     1.5704   210.3434 </r>
       <r>     7.7380     2.4781   210.6029 </r>
       <r>     7.8427     0.8713   210.6941 </r>
       <r>     7.9474     2.2900   210.9338 </r>
       <r>     8.0521     1.3688   211.0771 </r>
       <r>     8.1568     2.8520   211.3757 </r>
       <r>     8.2615     1.5959   211.5428 </r>
       <r>     8.3662     2.2234   211.7756 </r>
       <r>     8.4709     4.5985   212.2571 </r>
       <r>     8.5756     4.7778   212.7573 </r>
       <r>     8.6803     4.0439   213.1807 </r>
       <r>     8.7850     7.8054   213.9979 </r>
       <r>     8.8897     4.0594   214.4229 </r>
       <r>     8.9944     1.4817   214.5780 </r>
       <r>     9.0991     3.0600   214.8984 </r>
       <r>     9.2038     1.6770   215.0740 </r>
       <r>     9.3085     1.7780   215.2601 </r>
       <r>     9.4132     2.9739   215.5715 </r>
       <r>     9.5179     1.9102   215.7715 </r>
       <r>     9.6226     0.9205   215.8678 </r>
       <r>     9.7273     0.2175   215.8906 </r>
       <r>     9.8320     1.0029   215.9956 </r>
       <r>     9.9367     0.0419   216.0000 </r>
       <r>    10.0414     0.0000   216.0000 </r>
       <r>    10.1461     0.0000   216.0000 </r>
       <r>    10.2508     0.0000   216.0000 </r>
       <r>    10.3555     0.0000   216.0000 </r>
       <r>    10.4602     0.0000   216.0000 </r>
       <r>    10.5649     0.0000   216.0000 </r>
       <r>    10.6696     0.0000   216.0000 </r>
       <r>    10.7743     0.0000   216.0000 </r>
       <r>    10.8790     0.0000   216.0000 </r>
       <r>    10.9836     0.0000   216.0000 </r>
       <r>    11.0883     0.0000   216.0000 </r>
       <r>    11.1930     0.0000   216.0000 </r>
       <r>    11.2977     0.0000   216.0000 </r>
      </set>
     </set>
    </array>
   </total>
  </dos>
 </calculation>
 <structure name="finalpos" >
  <crystal>
   <varray name="basis" >
    <v>       0.00000000       0.00000000       6.22358237 </v>
    <v>       4.49629428      -4.49629428       0.00000000 </v>
    <v>      15.56204978      15.56204978       0.00000000 </v>
   </varray>
   <i name="volume">    870.94747731 </i>
   <varray name="rec_basis" >
    <v>       0.00000000       0.00000000       0.16067916 </v>
    <v>       0.11120269      -0.11120269       0.00000000 </v>
    <v>       0.03212944       0.03212944       0.00000000 </v>
   </varray>
  </crystal>
  <varray name="positions" >
   <v>       0.33911189       0.07924319       0.05611538 </v>
   <v>       0.83911189       0.07924319       0.05611538 </v>
   <v>       0.33911189       0.46768319       0.05611538 </v>
   <v>       0.83911189       0.46768319       0.05611538 </v>
   <v>       0.08911189       0.77346319       0.11223075 </v>
   <v>       0.58911189       0.77346319       0.11223075 </v>
   <v>       0.08911189       0.27346319       0.14446343 </v>
   <v>       0.58911189       0.27346319       0.14446343 </v>
   <v>       0.33911189       0.57924319       0.20057881 </v>
   <v>       0.83911189       0.57924319       0.20057881 </v>
   <v>       0.33911189       0.96768319       0.20057881 </v>
   <v>       0.83911189       0.96768319       0.20057881 </v>
   <v>       0.08911189       0.27346319       0.25669419 </v>
   <v>       0.58911189       0.27346319       0.25669419 </v>
   <v>       0.08908151       0.77346875       0.28820657 </v>
   <v>       0.58908162       0.77347340       0.28820707 </v>
   <v>       0.33905546       0.07973006       0.34537962 </v>
   <v>       0.83906113       0.07972872       0.34537976 </v>
   <v>       0.33907685       0.46709182       0.34536422 </v>
   <v>       0.83908141       0.46709346       0.34536415 </v>
   <v>       0.08908718       0.77350971       0.39942455 </v>
   <v>       0.58908328       0.77350903       0.39942463 </v>
   <v>       0.08907293       0.27348977       0.43440289 </v>
   <v>       0.58907409       0.27348957       0.43440286 </v>
   <v>       0.33912218       0.58367436       0.49190265 </v>
   <v>       0.83912726       0.58367487       0.49190248 </v>
   <v>       0.33910765       0.96335547       0.49193890 </v>
   <v>       0.83911228       0.96335437       0.49193883 </v>
   <v>       0.08908191       0.27360785       0.54405920 </v>
   <v>       0.58908151       0.27360748       0.54406012 </v>
   <v>       0.08911189       0.77346319       0.00000000 </v>
   <v>       0.58911189       0.77346319       0.00000000 </v>
   <v>       0.08911189       0.27346319       0.05611538 </v>
   <v>       0.58911189       0.27346319       0.05611538 </v>
   <v>       0.33911189       0.77346319       0.05611538 </v>
   <v>       0.83911189       0.77346319       0.05611538 </v>
   <v>       0.33911189       0.27346319       0.20057881 </v>
   <v>       0.83911189       0.27346319       0.20057881 </v>
   <v>       0.08911189       0.77346319       0.20057881 </v>
   <v>       0.58911189       0.77346319       0.20057881 </v>
   <v>       0.08905896       0.27342288       0.34601154 </v>
   <v>       0.58904482       0.27342578       0.34601162 </v>
   <v>       0.33906695       0.77342665       0.34396126 </v>
   <v>       0.83905394       0.77342756       0.34396208 </v>
   <v>       0.33907552       0.27351785       0.49397594 </v>
   <v>       0.83908486       0.27351680       0.49397650 </v>
   <v>       0.08913542       0.77349767       0.48475585 </v>
   <v>       0.58913557       0.77349775       0.48475356 </v>
  </varray>
  <varray name="selective"  type="logical" >
   <v type="logical" >  F  F  F </v>
   <v type="logical" >  F  F  F </v>
   <v type="logical" >  F  F  F </v>
   <v type="logical" >  F  F  F </v>
   <v type="logical" >  F  F  F </v>
   <v type="logical" >  F  F  F </v>
   <v type="logical" >  F  F  F </v>
   <v type="logical" >  F  F  F </v>
   <v type="logical" >  F  F  F </v>
   <v type="logical" >  F  F  F </v>
   <v type="logical" >  F  F  F </v>
   <v type="logical" >  F  F  F </v>
   <v type="logical" >  F  F  F </v>
   <v type="logical" >  F  F  F </v>
   <v type="logical" >  T  T  T </v>
   <v type="logical" >  T  T  T </v>
   <v type="logical" >  T  T  T </v>
   <v type="logical" >  T  T  T </v>
   <v type="logical" >  T  T  T </v>
   <v type="logical" >  T  T  T </v>
   <v type="logical" >  T  T  T </v>
   <v type="logical" >  T  T  T </v>
   <v type="logical" >  T  T  T </v>
   <v type="logical" >  T  T  T </v>
   <v type="logical" >  T  T  T </v>
   <v type="logical" >  T  T  T </v>
   <v type="logical" >  T  T  T </v>
   <v type="logical" >  T  T  T </v>
   <v type="logical" >  T  T  T </v>
   <v type="logical" >  T  T  T </v>
   <v type="logical" >  F  F  F </v>
   <v type="logical" >  F  F  F </v>
   <v type="logical" >  F  F  F </v>
   <v type="logical" >  F  F  F </v>
   <v type="logical" >  F  F  F </v>
   <v type="logical" >  F  F  F </v>
   <v type="logical" >  F  F  F </v>
   <v type="logical" >  F  F  F </v>
   <v type="logical" >  F  F  F </v>
   <v type="logical" >  F  F  F </v>
   <v type="logical" >  T  T  T </v>
   <v type="logical" >  T  T  T </v>
   <v type="logical" >  T  T  T </v>
   <v type="logical" >  T  T  T </v>
   <v type="logical" >  T  T  T </v>
   <v type="logical" >  T  T  T </v>
   <v type="logical" >  T  T  T </v>
   <v type="logical" >  T  T  T </v>
  </varray>
  <nose>
   <v>      -3.00000000       0.00000000       0.00010000       0.00010000 </v>
  </nose>
 </structure>
</modeling>
