RuO2_suf110                             
           1
     0.000000    0.000000    6.223582
     4.496294   -4.496294    0.000000
    15.562050   15.562050    0.000000
   O    Ru
  32  16
Direct configuration=     1
   0.33911189  0.07924319  0.05611538
   0.83911189  0.07924319  0.05611538
   0.33911189  0.46768319  0.05611538
   0.83911189  0.46768319  0.05611538
   0.08911189  0.77346319  0.11223075
   0.58911189  0.77346319  0.11223075
   0.08911189  0.27346319  0.14446343
   0.58911189  0.27346319  0.14446343
   0.33911189  0.57924319  0.20057881
   0.83911189  0.57924319  0.20057881
   0.33911189  0.96768319  0.20057881
   0.83911189  0.96768319  0.20057881
   0.08911189  0.27346319  0.25669419
   0.58911189  0.27346319  0.25669419
   0.08911189  0.77346319  0.28892687
   0.58911189  0.77346319  0.28892687
   0.33911189  0.07924319  0.34504224
   0.83911189  0.07924319  0.34504224
   0.33911189  0.46768319  0.34504224
   0.83911189  0.46768319  0.34504224
   0.08911189  0.77346319  0.40115762
   0.58911189  0.77346319  0.40115762
   0.08911189  0.27346319  0.43339030
   0.58911189  0.27346319  0.43339030
   0.33911189  0.57924319  0.48950568
   0.83911189  0.57924319  0.48950568
   0.33911189  0.96768319  0.48950568
   0.83911189  0.96768319  0.48950568
   0.08911189  0.27346319  0.54562105
   0.58911189  0.27346319  0.54562105
   0.08911189  0.77346319  0.00000000
   0.58911189  0.77346319  0.00000000
   0.08911189  0.27346319  0.05611538
   0.58911189  0.27346319  0.05611538
   0.33911189  0.77346319  0.05611538
   0.83911189  0.77346319  0.05611538
   0.33911189  0.27346319  0.20057881
   0.83911189  0.27346319  0.20057881
   0.08911189  0.77346319  0.20057881
   0.58911189  0.77346319  0.20057881
   0.08911189  0.27346319  0.34504224
   0.58911189  0.27346319  0.34504224
   0.33911189  0.77346319  0.34504224
   0.83911189  0.77346319  0.34504224
   0.33911189  0.27346319  0.48950568
   0.83911189  0.27346319  0.48950568
   0.08911189  0.77346319  0.48950568
   0.58911189  0.77346319  0.48950568
Direct configuration=     2
   0.33911189  0.07924319  0.05611538
   0.83911189  0.07924319  0.05611538
   0.33911189  0.46768319  0.05611538
   0.83911189  0.46768319  0.05611538
   0.08911189  0.77346319  0.11223075
   0.58911189  0.77346319  0.11223075
   0.08911189  0.27346319  0.14446343
   0.58911189  0.27346319  0.14446343
   0.33911189  0.57924319  0.20057881
   0.83911189  0.57924319  0.20057881
   0.33911189  0.96768319  0.20057881
   0.83911189  0.96768319  0.20057881
   0.08911189  0.27346319  0.25669419
   0.58911189  0.27346319  0.25669419
   0.08911357  0.77346658  0.28889013
   0.58911149  0.77346658  0.28889011
   0.33910917  0.07931092  0.34505950
   0.83910925  0.07931197  0.34505953
   0.33911288  0.46760561  0.34505938
   0.83911295  0.46760456  0.34505941
   0.08911270  0.77346891  0.40126547
   0.58911000  0.77346891  0.40126544
   0.08911048  0.27346854  0.43324605
   0.58910989  0.27346854  0.43324615
   0.33910984  0.57998798  0.48977811
   0.83911001  0.57998792  0.48977816
   0.33911840  0.96692879  0.48977924
   0.83911856  0.96692884  0.48977929
   0.08911139  0.27346450  0.54486244
   0.58911075  0.27346451  0.54486236
   0.08911189  0.77346319  0.00000000
   0.58911189  0.77346319  0.00000000
   0.08911189  0.27346319  0.05611538
   0.58911189  0.27346319  0.05611538
   0.33911189  0.77346319  0.05611538
   0.83911189  0.77346319  0.05611538
   0.33911189  0.27346319  0.20057881
   0.83911189  0.27346319  0.20057881
   0.08911189  0.77346319  0.20057881
   0.58911189  0.77346319  0.20057881
   0.08911152  0.27346193  0.34502276
   0.58911297  0.27346193  0.34502277
   0.33910942  0.77346279  0.34523001
   0.83910944  0.77346279  0.34522973
   0.33911205  0.27346318  0.49047849
   0.83911141  0.27346318  0.49047820
   0.08911376  0.77346180  0.48868641
   0.58911351  0.77346180  0.48868650
Direct configuration=     3
   0.33911189  0.07924319  0.05611538
   0.83911189  0.07924319  0.05611538
   0.33911189  0.46768319  0.05611538
   0.83911189  0.46768319  0.05611538
   0.08911189  0.77346319  0.11223075
   0.58911189  0.77346319  0.11223075
   0.08911189  0.27346319  0.14446343
   0.58911189  0.27346319  0.14446343
   0.33911189  0.57924319  0.20057881
   0.83911189  0.57924319  0.20057881
   0.33911189  0.96768319  0.20057881
   0.83911189  0.96768319  0.20057881
   0.08911189  0.27346319  0.25669419
   0.58911189  0.27346319  0.25669419
   0.08911551  0.77347051  0.28884749
   0.58911102  0.77347051  0.28884745
   0.33910601  0.07938952  0.34507952
   0.83910618  0.07939179  0.34507958
   0.33911401  0.46751557  0.34507927
   0.83911419  0.46751331  0.34507933
   0.08911363  0.77347554  0.40139062
   0.58910780  0.77347553  0.40139056
   0.08910885  0.27347474  0.43307865
   0.58910757  0.27347475  0.43307887
   0.33910746  0.58085225  0.49009425
   0.83910783  0.58085213  0.49009435
   0.33912595  0.96605335  0.49009669
   0.83912629  0.96605347  0.49009679
   0.08911081  0.27346601  0.54398212
   0.58910942  0.27346603  0.54398195
   0.08911189  0.77346319  0.00000000
   0.58911189  0.77346319  0.00000000
   0.08911189  0.27346319  0.05611538
   0.58911189  0.27346319  0.05611538
   0.33911189  0.77346319  0.05611538
   0.83911189  0.77346319  0.05611538
   0.33911189  0.27346319  0.20057881
   0.83911189  0.27346319  0.20057881
   0.08911189  0.77346319  0.20057881
   0.58911189  0.77346319  0.20057881
   0.08911108  0.27346045  0.34500016
   0.58911421  0.27346046  0.34500017
   0.33910654  0.77346231  0.34544791
   0.83910659  0.77346231  0.34544729
   0.33911223  0.27346317  0.49160737
   0.83911086  0.27346316  0.49160676
   0.08911593  0.77346018  0.48773570
   0.58911538  0.77346018  0.48773590
Direct configuration=     4
   0.33911189  0.07924319  0.05611538
   0.83911189  0.07924319  0.05611538
   0.33911189  0.46768319  0.05611538
   0.83911189  0.46768319  0.05611538
   0.08911189  0.77346319  0.11223075
   0.58911189  0.77346319  0.11223075
   0.08911189  0.27346319  0.14446343
   0.58911189  0.27346319  0.14446343
   0.33911189  0.57924319  0.20057881
   0.83911189  0.57924319  0.20057881
   0.33911189  0.96768319  0.20057881
   0.83911189  0.96768319  0.20057881
   0.08911189  0.27346319  0.25669419
   0.58911189  0.27346319  0.25669419
   0.08911939  0.77347836  0.28876222
   0.58911009  0.77347836  0.28876214
   0.33909969  0.07954672  0.34511956
   0.83910005  0.07955142  0.34511970
   0.33911629  0.46733551  0.34511905
   0.83911665  0.46733081  0.34511918
   0.08911550  0.77348880  0.40164092
   0.58910340  0.77348879  0.40164079
   0.08910557  0.27348714  0.43274386
   0.58910293  0.27348715  0.43274431
   0.33910271  0.58258079  0.49072653
   0.83910346  0.58258055  0.49072674
   0.33914105  0.96430248  0.49073160
   0.83914176  0.96430272  0.49073181
   0.08910965  0.27346904  0.54222148
   0.58910675  0.27346909  0.54222114
   0.08911189  0.77346319  0.00000000
   0.58911189  0.77346319  0.00000000
   0.08911189  0.27346319  0.05611538
   0.58911189  0.27346319  0.05611538
   0.33911189  0.77346319  0.05611538
   0.83911189  0.77346319  0.05611538
   0.33911189  0.27346319  0.20057881
   0.83911189  0.27346319  0.20057881
   0.08911189  0.77346319  0.20057881
   0.58911189  0.77346319  0.20057881
   0.08911021  0.27345751  0.34495495
   0.58911670  0.27345751  0.34495497
   0.33910080  0.77346137  0.34588370
   0.83910089  0.77346137  0.34588242
   0.33911260  0.27346314  0.49386514
   0.83910974  0.27346313  0.49386387
   0.08912026  0.77345694  0.48583428
   0.58911911  0.77345694  0.48583471
Direct configuration=     5
   0.33911189  0.07924319  0.05611538
   0.83911189  0.07924319  0.05611538
   0.33911189  0.46768319  0.05611538
   0.83911189  0.46768319  0.05611538
   0.08911189  0.77346319  0.11223075
   0.58911189  0.77346319  0.11223075
   0.08911189  0.27346319  0.14446343
   0.58911189  0.27346319  0.14446343
   0.33911189  0.57924319  0.20057881
   0.83911189  0.57924319  0.20057881
   0.33911189  0.96768319  0.20057881
   0.83911189  0.96768319  0.20057881
   0.08911189  0.27346319  0.25669419
   0.58911189  0.27346319  0.25669419
   0.08911796  0.77347547  0.28879358
   0.58911043  0.77347547  0.28879351
   0.33910202  0.07948891  0.34510484
   0.83910231  0.07949272  0.34510495
   0.33911545  0.46740173  0.34510442
   0.83911574  0.46739792  0.34510453
   0.08911481  0.77348392  0.40154887
   0.58910502  0.77348392  0.40154877
   0.08910678  0.27348258  0.43286698
   0.58910464  0.27348259  0.43286735
   0.33910446  0.58194513  0.49049401
   0.83910507  0.58194493  0.49049418
   0.33913550  0.96494635  0.49049811
   0.83913607  0.96494655  0.49049828
   0.08911008  0.27346793  0.54286895
   0.58910773  0.27346796  0.54286867
   0.08911189  0.77346319  0.00000000
   0.58911189  0.77346319  0.00000000
   0.08911189  0.27346319  0.05611538
   0.58911189  0.27346319  0.05611538
   0.33911189  0.77346319  0.05611538
   0.83911189  0.77346319  0.05611538
   0.33911189  0.27346319  0.20057881
   0.83911189  0.27346319  0.20057881
   0.08911189  0.77346319  0.20057881
   0.58911189  0.77346319  0.20057881
   0.08911053  0.27345859  0.34497157
   0.58911579  0.27345860  0.34497159
   0.33910291  0.77346172  0.34572344
   0.83910299  0.77346172  0.34572241
   0.33911247  0.27346315  0.49303486
   0.83911015  0.27346315  0.49303383
   0.08911866  0.77345813  0.48653352
   0.58911774  0.77345813  0.48653386
Direct configuration=     6
   0.33911189  0.07924319  0.05611538
   0.83911189  0.07924319  0.05611538
   0.33911189  0.46768319  0.05611538
   0.83911189  0.46768319  0.05611538
   0.08911189  0.77346319  0.11223075
   0.58911189  0.77346319  0.11223075
   0.08911189  0.27346319  0.14446343
   0.58911189  0.27346319  0.14446343
   0.33911189  0.57924319  0.20057881
   0.83911189  0.57924319  0.20057881
   0.33911189  0.96768319  0.20057881
   0.83911189  0.96768319  0.20057881
   0.08911189  0.27346319  0.25669419
   0.58911189  0.27346319  0.25669419
   0.08911576  0.77347844  0.28891005
   0.58910884  0.77347844  0.28890993
   0.33909896  0.07953673  0.34512218
   0.83910138  0.07953947  0.34512228
   0.33911375  0.46734875  0.34512114
   0.83911616  0.46734602  0.34512124
   0.08911350  0.77348862  0.40128371
   0.58910439  0.77348920  0.40128269
   0.08910737  0.27348809  0.43305651
   0.58910520  0.27348810  0.43305716
   0.33909990  0.58237937  0.49078153
   0.83910375  0.58237925  0.49078181
   0.33913877  0.96452266  0.49078549
   0.83914215  0.96452269  0.49078558
   0.08911101  0.27347450  0.54286119
   0.58910874  0.27347453  0.54286107
   0.08911189  0.77346319  0.00000000
   0.58911189  0.77346319  0.00000000
   0.08911189  0.27346319  0.05611538
   0.58911189  0.27346319  0.05611538
   0.33911189  0.77346319  0.05611538
   0.83911189  0.77346319  0.05611538
   0.33911189  0.27346319  0.20057881
   0.83911189  0.27346319  0.20057881
   0.08911189  0.77346319  0.20057881
   0.58911189  0.77346319  0.20057881
   0.08911243  0.27345060  0.34507272
   0.58911375  0.27345067  0.34507264
   0.33910177  0.77346101  0.34555540
   0.83910222  0.77346101  0.34555456
   0.33910657  0.27345858  0.49290940
   0.83910580  0.27345858  0.49290840
   0.08911647  0.77344866  0.48615461
   0.58911586  0.77344866  0.48615624
Direct configuration=     7
   0.33911189  0.07924319  0.05611538
   0.83911189  0.07924319  0.05611538
   0.33911189  0.46768319  0.05611538
   0.83911189  0.46768319  0.05611538
   0.08911189  0.77346319  0.11223075
   0.58911189  0.77346319  0.11223075
   0.08911189  0.27346319  0.14446343
   0.58911189  0.27346319  0.14446343
   0.33911189  0.57924319  0.20057881
   0.83911189  0.57924319  0.20057881
   0.33911189  0.96768319  0.20057881
   0.83911189  0.96768319  0.20057881
   0.08911189  0.27346319  0.25669419
   0.58911189  0.27346319  0.25669419
   0.08911031  0.77348578  0.28919803
   0.58910490  0.77348577  0.28919780
   0.33909141  0.07965496  0.34516507
   0.83909908  0.07965507  0.34516513
   0.33910955  0.46721776  0.34516250
   0.83911721  0.46721768  0.34516256
   0.08911027  0.77350025  0.40062805
   0.58910283  0.77350227  0.40062474
   0.08910886  0.27350172  0.43352516
   0.58910660  0.27350172  0.43352651
   0.33908862  0.58345315  0.49149250
   0.83910051  0.58345322  0.49149303
   0.33914685  0.96347499  0.49149608
   0.83915717  0.96347461  0.49149599
   0.08911333  0.27349074  0.54284203
   0.58911123  0.27349078  0.54284228
   0.08911189  0.77346319  0.00000000
   0.58911189  0.77346319  0.00000000
   0.08911189  0.27346319  0.05611538
   0.58911189  0.27346319  0.05611538
   0.33911189  0.77346319  0.05611538
   0.83911189  0.77346319  0.05611538
   0.33911189  0.27346319  0.20057881
   0.83911189  0.27346319  0.20057881
   0.08911189  0.77346319  0.20057881
   0.58911189  0.77346319  0.20057881
   0.08911712  0.27343082  0.34532284
   0.58910870  0.27343108  0.34532250
   0.33909896  0.77345925  0.34513987
   0.83910033  0.77345926  0.34513952
   0.33909197  0.27344730  0.49259917
   0.83909502  0.27344730  0.49259827
   0.08911103  0.77342524  0.48521767
   0.58911122  0.77342523  0.48522249
Direct configuration=     8
   0.33911189  0.07924319  0.05611538
   0.83911189  0.07924319  0.05611538
   0.33911189  0.46768319  0.05611538
   0.83911189  0.46768319  0.05611538
   0.08911189  0.77346319  0.11223075
   0.58911189  0.77346319  0.11223075
   0.08911189  0.27346319  0.14446343
   0.58911189  0.27346319  0.14446343
   0.33911189  0.57924319  0.20057881
   0.83911189  0.57924319  0.20057881
   0.33911189  0.96768319  0.20057881
   0.83911189  0.96768319  0.20057881
   0.08911189  0.27346319  0.25669419
   0.58911189  0.27346319  0.25669419
   0.08910430  0.77348977  0.28902495
   0.58910175  0.77348979  0.28902491
   0.33909527  0.07972735  0.34522243
   0.83909676  0.07972807  0.34522246
   0.33911121  0.46713278  0.34521820
   0.83911306  0.46713174  0.34521852
   0.08910778  0.77350581  0.40025998
   0.58910428  0.77350765  0.40026021
   0.08910718  0.27350454  0.43359970
   0.58910477  0.27350460  0.43359980
   0.33907951  0.58348551  0.49162084
   0.83908656  0.58348554  0.49162123
   0.33914390  0.96343381  0.49162610
   0.83915065  0.96343452  0.49162584
   0.08910980  0.27350019  0.54285829
   0.58910872  0.27350026  0.54285826
   0.08911189  0.77346319  0.00000000
   0.58911189  0.77346319  0.00000000
   0.08911189  0.27346319  0.05611538
   0.58911189  0.27346319  0.05611538
   0.33911189  0.77346319  0.05611538
   0.83911189  0.77346319  0.05611538
   0.33911189  0.27346319  0.20057881
   0.83911189  0.27346319  0.20057881
   0.08911189  0.77346319  0.20057881
   0.58911189  0.77346319  0.20057881
   0.08910802  0.27343434  0.34539446
   0.58910593  0.27343448  0.34539473
   0.33910297  0.77345036  0.34489850
   0.83910386  0.77345041  0.34489841
   0.33908910  0.27344419  0.49273888
   0.83909070  0.27344410  0.49273819
   0.08911863  0.77344383  0.48530111
   0.58911861  0.77344371  0.48530278
Direct configuration=     9
   0.33911189  0.07924319  0.05611538
   0.83911189  0.07924319  0.05611538
   0.33911189  0.46768319  0.05611538
   0.83911189  0.46768319  0.05611538
   0.08911189  0.77346319  0.11223075
   0.58911189  0.77346319  0.11223075
   0.08911189  0.27346319  0.14446343
   0.58911189  0.27346319  0.14446343
   0.33911189  0.57924319  0.20057881
   0.83911189  0.57924319  0.20057881
   0.33911189  0.96768319  0.20057881
   0.83911189  0.96768319  0.20057881
   0.08911189  0.27346319  0.25669419
   0.58911189  0.27346319  0.25669419
   0.08909670  0.77349480  0.28880633
   0.58909777  0.77349488  0.28880652
   0.33910014  0.07981880  0.34529489
   0.83909383  0.07982029  0.34529489
   0.33911330  0.46702544  0.34528855
   0.83910782  0.46702319  0.34528920
   0.08910465  0.77351283  0.39979504
   0.58910611  0.77351444  0.39979974
   0.08910507  0.27350810  0.43369384
   0.58910246  0.27350824  0.43369238
   0.33906801  0.58352639  0.49178295
   0.83906895  0.58352635  0.49178318
   0.33914017  0.96338178  0.49179033
   0.83914242  0.96338388  0.49178987
   0.08910533  0.27351213  0.54287884
   0.58910554  0.27351223  0.54287846
   0.08911189  0.77346319  0.00000000
   0.58911189  0.77346319  0.00000000
   0.08911189  0.27346319  0.05611538
   0.58911189  0.27346319  0.05611538
   0.33911189  0.77346319  0.05611538
   0.83911189  0.77346319  0.05611538
   0.33911189  0.27346319  0.20057881
   0.83911189  0.27346319  0.20057881
   0.08911189  0.77346319  0.20057881
   0.58911189  0.77346319  0.20057881
   0.08909653  0.27343878  0.34548492
   0.58910243  0.27343877  0.34548598
   0.33910805  0.77343913  0.34459361
   0.83910831  0.77343923  0.34459384
   0.33908547  0.27344027  0.49291535
   0.83908524  0.27344007  0.49291493
   0.08912823  0.77346732  0.48540651
   0.58912794  0.77346706  0.48540420
Direct configuration=    10
   0.33911189  0.07924319  0.05611538
   0.83911189  0.07924319  0.05611538
   0.33911189  0.46768319  0.05611538
   0.83911189  0.46768319  0.05611538
   0.08911189  0.77346319  0.11223075
   0.58911189  0.77346319  0.11223075
   0.08911189  0.27346319  0.14446343
   0.58911189  0.27346319  0.14446343
   0.33911189  0.57924319  0.20057881
   0.83911189  0.57924319  0.20057881
   0.33911189  0.96768319  0.20057881
   0.83911189  0.96768319  0.20057881
   0.08911189  0.27346319  0.25669419
   0.58911189  0.27346319  0.25669419
   0.08910024  0.77349352  0.28851300
   0.58910230  0.77349360  0.28851323
   0.33909882  0.07981079  0.34533191
   0.83909348  0.07981075  0.34533194
   0.33911111  0.46703122  0.34532310
   0.83910631  0.46703084  0.34532379
   0.08910799  0.77351458  0.39978304
   0.58911048  0.77351576  0.39978628
   0.08909976  0.27350895  0.43375709
   0.58909821  0.27350910  0.43375637
   0.33907458  0.58349921  0.49187662
   0.83906993  0.58349929  0.49187672
   0.33914092  0.96342556  0.49188783
   0.83913764  0.96342707  0.49188730
   0.08909727  0.27352143  0.54301703
   0.58909789  0.27352148  0.54301664
   0.08911189  0.77346319  0.00000000
   0.58911189  0.77346319  0.00000000
   0.08911189  0.27346319  0.05611538
   0.58911189  0.27346319  0.05611538
   0.33911189  0.77346319  0.05611538
   0.83911189  0.77346319  0.05611538
   0.33911189  0.27346319  0.20057881
   0.83911189  0.27346319  0.20057881
   0.08911189  0.77346319  0.20057881
   0.58911189  0.77346319  0.20057881
   0.08909261  0.27343236  0.34560609
   0.58909378  0.27343239  0.34560644
   0.33909407  0.77343570  0.34436521
   0.83909086  0.77343571  0.34436547
   0.33908438  0.27345378  0.49305455
   0.83908443  0.27345390  0.49305435
   0.08912732  0.77346050  0.48525293
   0.58912767  0.77346056  0.48525092
Direct configuration=    11
   0.33911189  0.07924319  0.05611538
   0.83911189  0.07924319  0.05611538
   0.33911189  0.46768319  0.05611538
   0.83911189  0.46768319  0.05611538
   0.08911189  0.77346319  0.11223075
   0.58911189  0.77346319  0.11223075
   0.08911189  0.27346319  0.14446343
   0.58911189  0.27346319  0.14446343
   0.33911189  0.57924319  0.20057881
   0.83911189  0.57924319  0.20057881
   0.33911189  0.96768319  0.20057881
   0.83911189  0.96768319  0.20057881
   0.08911189  0.27346319  0.25669419
   0.58911189  0.27346319  0.25669419
   0.08910123  0.77349316  0.28843066
   0.58910357  0.77349324  0.28843090
   0.33909845  0.07980854  0.34534230
   0.83909338  0.07980808  0.34534235
   0.33911050  0.46703284  0.34533280
   0.83910589  0.46703298  0.34533350
   0.08910892  0.77351507  0.39977967
   0.58911171  0.77351613  0.39978250
   0.08909827  0.27350919  0.43377484
   0.58909702  0.27350934  0.43377434
   0.33907643  0.58349158  0.49190292
   0.83907021  0.58349170  0.49190298
   0.33914113  0.96343785  0.49191520
   0.83913630  0.96343920  0.49191465
   0.08909501  0.27352405  0.54305583
   0.58909574  0.27352407  0.54305543
   0.08911189  0.77346319  0.00000000
   0.58911189  0.77346319  0.00000000
   0.08911189  0.27346319  0.05611538
   0.58911189  0.27346319  0.05611538
   0.33911189  0.77346319  0.05611538
   0.83911189  0.77346319  0.05611538
   0.33911189  0.27346319  0.20057881
   0.83911189  0.27346319  0.20057881
   0.08911189  0.77346319  0.20057881
   0.58911189  0.77346319  0.20057881
   0.08909151  0.27343056  0.34564010
   0.58909135  0.27343059  0.34564025
   0.33909014  0.77343474  0.34430110
   0.83908596  0.77343472  0.34430137
   0.33908407  0.27345758  0.49309363
   0.83908421  0.27345778  0.49309349
   0.08912706  0.77345859  0.48520982
   0.58912760  0.77345874  0.48520789
Direct configuration=    12
   0.33911189  0.07924319  0.05611538
   0.83911189  0.07924319  0.05611538
   0.33911189  0.46768319  0.05611538
   0.83911189  0.46768319  0.05611538
   0.08911189  0.77346319  0.11223075
   0.58911189  0.77346319  0.11223075
   0.08911189  0.27346319  0.14446343
   0.58911189  0.27346319  0.14446343
   0.33911189  0.57924319  0.20057881
   0.83911189  0.57924319  0.20057881
   0.33911189  0.96768319  0.20057881
   0.83911189  0.96768319  0.20057881
   0.08911189  0.27346319  0.25669419
   0.58911189  0.27346319  0.25669419
   0.08910321  0.77349243  0.28826598
   0.58910611  0.77349252  0.28826625
   0.33909770  0.07980405  0.34536308
   0.83909319  0.07980272  0.34536315
   0.33910928  0.46703608  0.34535220
   0.83910505  0.46703728  0.34535291
   0.08911080  0.77351604  0.39977294
   0.58911416  0.77351688  0.39977494
   0.08909529  0.27350967  0.43381035
   0.58909463  0.27350982  0.43381026
   0.33908012  0.58347632  0.49195551
   0.83907076  0.58347650  0.49195549
   0.33914155  0.96346242  0.49196993
   0.83913363  0.96346345  0.49196935
   0.08909049  0.27352927  0.54313341
   0.58909145  0.27352926  0.54313300
   0.08911189  0.77346319  0.00000000
   0.58911189  0.77346319  0.00000000
   0.08911189  0.27346319  0.05611538
   0.58911189  0.27346319  0.05611538
   0.33911189  0.77346319  0.05611538
   0.83911189  0.77346319  0.05611538
   0.33911189  0.27346319  0.20057881
   0.83911189  0.27346319  0.20057881
   0.08911189  0.77346319  0.20057881
   0.58911189  0.77346319  0.20057881
   0.08908931  0.27342695  0.34570813
   0.58908649  0.27342701  0.34570788
   0.33908229  0.77343282  0.34417288
   0.83907617  0.77343274  0.34417316
   0.33908345  0.27346517  0.49317178
   0.83908376  0.27346555  0.49317176
   0.08912655  0.77345476  0.48512360
   0.58912745  0.77345509  0.48512183
Direct configuration=    13
   0.33911189  0.07924319  0.05611538
   0.83911189  0.07924319  0.05611538
   0.33911189  0.46768319  0.05611538
   0.83911189  0.46768319  0.05611538
   0.08911189  0.77346319  0.11223075
   0.58911189  0.77346319  0.11223075
   0.08911189  0.27346319  0.14446343
   0.58911189  0.27346319  0.14446343
   0.33911189  0.57924319  0.20057881
   0.83911189  0.57924319  0.20057881
   0.33911189  0.96768319  0.20057881
   0.83911189  0.96768319  0.20057881
   0.08911189  0.27346319  0.25669419
   0.58911189  0.27346319  0.25669419
   0.08910718  0.77349099  0.28793662
   0.58911119  0.77349109  0.28793694
   0.33909622  0.07979506  0.34540465
   0.83909279  0.07979202  0.34540476
   0.33910683  0.46704257  0.34539100
   0.83910336  0.46704586  0.34539174
   0.08911455  0.77351800  0.39975947
   0.58911907  0.77351836  0.39975983
   0.08908932  0.27351063  0.43388136
   0.58908986  0.27351079  0.43388212
   0.33908750  0.58344580  0.49206068
   0.83907186  0.58344612  0.49206052
   0.33914240  0.96351158  0.49207940
   0.83912827  0.96351195  0.49207874
   0.08908144  0.27353971  0.54328858
   0.58908286  0.27353964  0.54328815
   0.08911189  0.77346319  0.00000000
   0.58911189  0.77346319  0.00000000
   0.08911189  0.27346319  0.05611538
   0.58911189  0.27346319  0.05611538
   0.33911189  0.77346319  0.05611538
   0.83911189  0.77346319  0.05611538
   0.33911189  0.27346319  0.20057881
   0.83911189  0.27346319  0.20057881
   0.08911189  0.77346319  0.20057881
   0.58911189  0.77346319  0.20057881
   0.08908491  0.27341974  0.34584417
   0.58907678  0.27341983  0.34584314
   0.33906659  0.77342897  0.34391642
   0.83905657  0.77342877  0.34391674
   0.33908222  0.27348034  0.49332808
   0.83908285  0.27348108  0.49332831
   0.08912552  0.77344711  0.48495116
   0.58912715  0.77344779  0.48494971
Direct configuration=    14
   0.33911189  0.07924319  0.05611538
   0.83911189  0.07924319  0.05611538
   0.33911189  0.46768319  0.05611538
   0.83911189  0.46768319  0.05611538
   0.08911189  0.77346319  0.11223075
   0.58911189  0.77346319  0.11223075
   0.08911189  0.27346319  0.14446343
   0.58911189  0.27346319  0.14446343
   0.33911189  0.57924319  0.20057881
   0.83911189  0.57924319  0.20057881
   0.33911189  0.96768319  0.20057881
   0.83911189  0.96768319  0.20057881
   0.08911189  0.27346319  0.25669419
   0.58911189  0.27346319  0.25669419
   0.08910405  0.77349213  0.28819642
   0.58910718  0.77349222  0.28819670
   0.33909739  0.07980215  0.34537186
   0.83909310  0.07980046  0.34537194
   0.33910876  0.46703745  0.34536039
   0.83910469  0.46703909  0.34536111
   0.08911159  0.77351646  0.39977009
   0.58911520  0.77351719  0.39977175
   0.08909403  0.27350987  0.43382534
   0.58909362  0.27351003  0.43382544
   0.33908168  0.58346987  0.49197772
   0.83907099  0.58347009  0.49197767
   0.33914173  0.96347281  0.49199305
   0.83913249  0.96347369  0.49199245
   0.08908858  0.27353147  0.54316618
   0.58908964  0.27353145  0.54316577
   0.08911189  0.77346319  0.00000000
   0.58911189  0.77346319  0.00000000
   0.08911189  0.27346319  0.05611538
   0.58911189  0.27346319  0.05611538
   0.33911189  0.77346319  0.05611538
   0.83911189  0.77346319  0.05611538
   0.33911189  0.27346319  0.20057881
   0.83911189  0.27346319  0.20057881
   0.08911189  0.77346319  0.20057881
   0.58911189  0.77346319  0.20057881
   0.08908838  0.27342543  0.34573686
   0.58908444  0.27342549  0.34573645
   0.33907898  0.77343201  0.34411871
   0.83907203  0.77343190  0.34411900
   0.33908319  0.27346837  0.49320479
   0.83908356  0.27346883  0.49320482
   0.08912633  0.77345314  0.48508718
   0.58912739  0.77345355  0.48508548
Direct configuration=    15
   0.33911189  0.07924319  0.05611538
   0.83911189  0.07924319  0.05611538
   0.33911189  0.46768319  0.05611538
   0.83911189  0.46768319  0.05611538
   0.08911189  0.77346319  0.11223075
   0.58911189  0.77346319  0.11223075
   0.08911189  0.27346319  0.14446343
   0.58911189  0.27346319  0.14446343
   0.33911189  0.57924319  0.20057881
   0.83911189  0.57924319  0.20057881
   0.33911189  0.96768319  0.20057881
   0.83911189  0.96768319  0.20057881
   0.08911189  0.27346319  0.25669419
   0.58911189  0.27346319  0.25669419
   0.08909143  0.77348592  0.28820177
   0.58909389  0.77348727  0.28820164
   0.33908764  0.07971440  0.34536667
   0.83908516  0.07971464  0.34536677
   0.33909746  0.46712158  0.34535421
   0.83909495  0.46712138  0.34535477
   0.08909900  0.77351425  0.39969981
   0.58910024  0.77351473  0.39969893
   0.08908990  0.27350958  0.43393429
   0.58908941  0.27350967  0.43393434
   0.33909559  0.58355356  0.49197350
   0.83908985  0.58355352  0.49197346
   0.33914023  0.96339641  0.49199261
   0.83913547  0.96339699  0.49199214
   0.08908578  0.27354579  0.54334456
   0.58908648  0.27354568  0.54334427
   0.08911189  0.77346319  0.00000000
   0.58911189  0.77346319  0.00000000
   0.08911189  0.27346319  0.05611538
   0.58911189  0.27346319  0.05611538
   0.33911189  0.77346319  0.05611538
   0.83911189  0.77346319  0.05611538
   0.33911189  0.27346319  0.20057881
   0.83911189  0.27346319  0.20057881
   0.08911189  0.77346319  0.20057881
   0.58911189  0.77346319  0.20057881
   0.08908651  0.27342049  0.34580049
   0.58908704  0.27342055  0.34580022
   0.33908772  0.77343878  0.34407193
   0.83908966  0.77343875  0.34407209
   0.33908528  0.27347448  0.49333112
   0.83908404  0.27347493  0.49333107
   0.08911828  0.77346631  0.48500957
   0.58911844  0.77346678  0.48501009
Direct configuration=    16
   0.33911189  0.07924319  0.05611538
   0.83911189  0.07924319  0.05611538
   0.33911189  0.46768319  0.05611538
   0.83911189  0.46768319  0.05611538
   0.08911189  0.77346319  0.11223075
   0.58911189  0.77346319  0.11223075
   0.08911189  0.27346319  0.14446343
   0.58911189  0.27346319  0.14446343
   0.33911189  0.57924319  0.20057881
   0.83911189  0.57924319  0.20057881
   0.33911189  0.96768319  0.20057881
   0.83911189  0.96768319  0.20057881
   0.08911189  0.27346319  0.25669419
   0.58911189  0.27346319  0.25669419
   0.08905359  0.77346728  0.28821782
   0.58905402  0.77347240  0.28821649
   0.33905838  0.07945115  0.34535111
   0.83906135  0.07945719  0.34535126
   0.33906357  0.46737396  0.34533566
   0.83906571  0.46736826  0.34533576
   0.08906122  0.77350763  0.39948895
   0.58905538  0.77350734  0.39948046
   0.08907752  0.27350872  0.43426113
   0.58907678  0.27350860  0.43426106
   0.33913735  0.58380461  0.49196083
   0.83914642  0.58380384  0.49196081
   0.33913573  0.96316723  0.49199128
   0.83914441  0.96316687  0.49199120
   0.08907738  0.27358874  0.54387970
   0.58907700  0.27358835  0.54387977
   0.08911189  0.77346319  0.00000000
   0.58911189  0.77346319  0.00000000
   0.08911189  0.27346319  0.05611538
   0.58911189  0.27346319  0.05611538
   0.33911189  0.77346319  0.05611538
   0.83911189  0.77346319  0.05611538
   0.33911189  0.27346319  0.20057881
   0.83911189  0.27346319  0.20057881
   0.08911189  0.77346319  0.20057881
   0.58911189  0.77346319  0.20057881
   0.08908090  0.27340568  0.34599137
   0.58909482  0.27340573  0.34599155
   0.33911394  0.77345911  0.34393158
   0.83914254  0.77345932  0.34393135
   0.33909156  0.27349281  0.49371009
   0.83908545  0.27349323  0.49370982
   0.08909413  0.77350583  0.48477674
   0.58909160  0.77350646  0.48478395
Direct configuration=    17
   0.33911189  0.07924319  0.05611538
   0.83911189  0.07924319  0.05611538
   0.33911189  0.46768319  0.05611538
   0.83911189  0.46768319  0.05611538