  48  48   0   0
  0.2334358E+02  0.6861227E-09  0.7025442E-09  0.2324521E-08  0.1000000E-15
  1.000000000000000E-004
  CAR 
 PbO2_suf110_2x1x4_2fix                  
     10.08411228    -20.76155806  301     -0.92934851      1.00000000
    -20.762  0.0000E+00  0.0000E+00  0.0000E+00  0.0000E+00
    -20.659  0.0000E+00  0.0000E+00  0.0000E+00  0.0000E+00
    -20.556  0.0000E+00  0.0000E+00  0.0000E+00  0.0000E+00
    -20.453  0.0000E+00  0.0000E+00  0.0000E+00  0.0000E+00
    -20.350  0.0000E+00  0.0000E+00  0.0000E+00  0.0000E+00
    -20.247  0.0000E+00  0.0000E+00  0.0000E+00  0.0000E+00
    -20.145  0.0000E+00  0.0000E+00  0.0000E+00  0.0000E+00
    -20.042  0.0000E+00  0.0000E+00  0.0000E+00  0.0000E+00
    -19.939  0.0000E+00  0.0000E+00  0.0000E+00  0.0000E+00
    -19.836  0.0000E+00  0.0000E+00  0.0000E+00  0.0000E+00
    -19.733  0.0000E+00  0.0000E+00  0.0000E+00  0.0000E+00
    -19.631  0.9478E-17  0.9538E-17  0.9745E-18  0.9807E-18
    -19.528  0.1051E-08  0.1052E-08  0.1081E-09  0.1082E-09
    -19.425  0.3468E-04  0.3470E-04  0.3566E-05  0.3568E-05
    -19.322  0.9082E-03  0.9083E-03  0.9695E-04  0.9695E-04
    -19.219  0.2456E-02  0.2456E-02  0.3494E-03  0.3495E-03
    -19.116  0.4609E-02  0.4610E-02  0.8234E-03  0.8234E-03
    -19.014  0.6153E-02  0.6154E-02  0.1456E-02  0.1456E-02
    -18.911  0.3928E-02  0.3930E-02  0.1860E-02  0.1860E-02
    -18.808  0.6425E-02  0.6425E-02  0.2520E-02  0.2521E-02
    -18.705  0.8462E-02  0.8467E-02  0.3390E-02  0.3392E-02
    -18.602  0.9034E-02  0.9031E-02  0.4319E-02  0.4320E-02
    -18.500  0.1195E-01  0.1195E-01  0.5548E-02  0.5548E-02
    -18.397  0.9582E-02  0.9593E-02  0.6533E-02  0.6535E-02
    -18.294  0.1310E-01  0.1311E-01  0.7881E-02  0.7882E-02
    -18.191  0.9706E-02  0.9694E-02  0.8879E-02  0.8879E-02
    -18.088  0.1478E-01  0.1479E-01  0.1040E-01  0.1040E-01
    -17.985  0.1521E-01  0.1521E-01  0.1196E-01  0.1196E-01
    -17.883  0.1479E-01  0.1477E-01  0.1348E-01  0.1348E-01
    -17.780  0.1109E-01  0.1109E-01  0.1462E-01  0.1462E-01
    -17.677  0.8974E-02  0.9012E-02  0.1554E-01  0.1555E-01
    -17.574  0.1544E-01  0.1540E-01  0.1713E-01  0.1713E-01
    -17.471  0.1023E-01  0.1023E-01  0.1818E-01  0.1818E-01
    -17.369  0.1383E-01  0.1387E-01  0.1961E-01  0.1961E-01
    -17.266  0.2057E-01  0.2056E-01  0.2172E-01  0.2172E-01
    -17.163  0.2134E-01  0.2134E-01  0.2392E-01  0.2392E-01
    -17.060  0.1656E-01  0.1656E-01  0.2562E-01  0.2562E-01
    -16.957  0.1669E-01  0.1670E-01  0.2733E-01  0.2734E-01
    -16.854  0.6431E-02  0.6397E-02  0.2800E-01  0.2800E-01
    -16.752  0.1772E-02  0.1965E-02  0.2818E-01  0.2820E-01
    -16.649  0.4474E-02  0.4743E-02  0.2864E-01  0.2869E-01
    -16.546  0.7149E-02  0.6713E-02  0.2937E-01  0.2938E-01
    -16.443  0.5610E-02  0.5591E-02  0.2995E-01  0.2995E-01
    -16.340  0.3755E-02  0.3992E-02  0.3034E-01  0.3036E-01
    -16.238  0.4774E-02  0.4640E-02  0.3083E-01  0.3084E-01
    -16.135  0.7947E-02  0.7853E-02  0.3164E-01  0.3165E-01
    -16.032  0.2733E-02  0.2713E-02  0.3192E-01  0.3192E-01
    -15.929  0.7366E-03  0.7325E-03  0.3200E-01  0.3200E-01
    -15.826  0.4156E-06  0.4089E-06  0.3200E-01  0.3200E-01
    -15.723  0.8496E-13  0.8262E-13  0.3200E-01  0.3200E-01
    -15.621  0.0000E+00  0.0000E+00  0.3200E-01  0.3200E-01
    -15.518  0.0000E+00  0.0000E+00  0.3200E-01  0.3200E-01
    -15.415  0.0000E+00  0.0000E+00  0.3200E-01  0.3200E-01
    -15.312  0.0000E+00  0.0000E+00  0.3200E-01  0.3200E-01
    -15.209  0.0000E+00  0.0000E+00  0.3200E-01  0.3200E-01
    -15.107  0.0000E+00  0.0000E+00  0.3200E-01  0.3200E-01
    -15.004  0.0000E+00  0.0000E+00  0.3200E-01  0.3200E-01
    -14.901  0.0000E+00  0.0000E+00  0.3200E-01  0.3200E-01
    -14.798  0.0000E+00  0.0000E+00  0.3200E-01  0.3200E-01
    -14.695  0.0000E+00  0.0000E+00  0.3200E-01  0.3200E-01
    -14.592  0.0000E+00  0.0000E+00  0.3200E-01  0.3200E-01
    -14.490  0.0000E+00  0.0000E+00  0.3200E-01  0.3200E-01
    -14.387  0.0000E+00  0.0000E+00  0.3200E-01  0.3200E-01
    -14.284  0.0000E+00  0.0000E+00  0.3200E-01  0.3200E-01
    -14.181  0.0000E+00  0.0000E+00  0.3200E-01  0.3200E-01
    -14.078  0.0000E+00  0.0000E+00  0.3200E-01  0.3200E-01
    -13.976  0.0000E+00  0.0000E+00  0.3200E-01  0.3200E-01
    -13.873  0.0000E+00  0.0000E+00  0.3200E-01  0.3200E-01
    -13.770  0.0000E+00  0.0000E+00  0.3200E-01  0.3200E-01
    -13.667  0.0000E+00  0.0000E+00  0.3200E-01  0.3200E-01
    -13.564  0.0000E+00  0.0000E+00  0.3200E-01  0.3200E-01
    -13.461  0.0000E+00  0.0000E+00  0.3200E-01  0.3200E-01
    -13.359  0.0000E+00  0.0000E+00  0.3200E-01  0.3200E-01
    -13.256  0.0000E+00  0.0000E+00  0.3200E-01  0.3200E-01
    -13.153  0.0000E+00  0.0000E+00  0.3200E-01  0.3200E-01
    -13.050  0.0000E+00  0.0000E+00  0.3200E-01  0.3200E-01
    -12.947  0.0000E+00  0.0000E+00  0.3200E-01  0.3200E-01
    -12.845  0.0000E+00  0.0000E+00  0.3200E-01  0.3200E-01
    -12.742  0.0000E+00  0.0000E+00  0.3200E-01  0.3200E-01
    -12.639  0.0000E+00  0.0000E+00  0.3200E-01  0.3200E-01
    -12.536  0.0000E+00  0.0000E+00  0.3200E-01  0.3200E-01
    -12.433  0.0000E+00  0.0000E+00  0.3200E-01  0.3200E-01
    -12.330  0.0000E+00  0.0000E+00  0.3200E-01  0.3200E-01
    -12.228  0.0000E+00  0.0000E+00  0.3200E-01  0.3200E-01
    -12.125  0.0000E+00  0.0000E+00  0.3200E-01  0.3200E-01
    -12.022  0.0000E+00  0.0000E+00  0.3200E-01  0.3200E-01
    -11.919  0.0000E+00  0.0000E+00  0.3200E-01  0.3200E-01
    -11.816  0.0000E+00  0.0000E+00  0.3200E-01  0.3200E-01
    -11.713  0.0000E+00  0.0000E+00  0.3200E-01  0.3200E-01
    -11.611  0.0000E+00  0.0000E+00  0.3200E-01  0.3200E-01
    -11.508  0.0000E+00  0.0000E+00  0.3200E-01  0.3200E-01
    -11.405  0.0000E+00  0.0000E+00  0.3200E-01  0.3200E-01
    -11.302  0.0000E+00  0.0000E+00  0.3200E-01  0.3200E-01
    -11.199  0.0000E+00  0.0000E+00  0.3200E-01  0.3200E-01
    -11.097  0.0000E+00  0.0000E+00  0.3200E-01  0.3200E-01
    -10.994  0.0000E+00  0.0000E+00  0.3200E-01  0.3200E-01
    -10.891  0.0000E+00  0.0000E+00  0.3200E-01  0.3200E-01
    -10.788  0.0000E+00  0.0000E+00  0.3200E-01  0.3200E-01
    -10.685  0.0000E+00  0.0000E+00  0.3200E-01  0.3200E-01
    -10.582  0.0000E+00  0.0000E+00  0.3200E-01  0.3200E-01
    -10.480  0.0000E+00  0.0000E+00  0.3200E-01  0.3200E-01
    -10.377  0.0000E+00  0.0000E+00  0.3200E-01  0.3200E-01
    -10.274  0.0000E+00  0.0000E+00  0.3200E-01  0.3200E-01
    -10.171  0.0000E+00  0.0000E+00  0.3200E-01  0.3200E-01
    -10.068  0.0000E+00  0.0000E+00  0.3200E-01  0.3200E-01
     -9.966  0.0000E+00  0.0000E+00  0.3200E-01  0.3200E-01
     -9.863  0.0000E+00  0.0000E+00  0.3200E-01  0.3200E-01
     -9.760  0.0000E+00  0.0000E+00  0.3200E-01  0.3200E-01
     -9.657  0.0000E+00  0.0000E+00  0.3200E-01  0.3200E-01
     -9.554  0.1899E-12  0.1888E-12  0.3200E-01  0.3200E-01
     -9.451  0.6407E-06  0.6386E-06  0.3200E-01  0.3200E-01
     -9.349  0.9682E-03  0.9671E-03  0.3210E-01  0.3210E-01
     -9.246  0.4296E-02  0.4296E-02  0.3254E-01  0.3254E-01
     -9.143  0.3700E-02  0.3698E-02  0.3292E-01  0.3292E-01
     -9.040  0.7051E-02  0.7043E-02  0.3365E-01  0.3365E-01
     -8.937  0.9291E-02  0.9291E-02  0.3460E-01  0.3460E-01
     -8.835  0.8454E-02  0.8462E-02  0.3547E-01  0.3547E-01
     -8.732  0.3506E-02  0.3506E-02  0.3583E-01  0.3583E-01
     -8.629  0.7842E-02  0.7838E-02  0.3664E-01  0.3664E-01
     -8.526  0.1126E-01  0.1125E-01  0.3780E-01  0.3779E-01
     -8.423  0.1218E-01  0.1219E-01  0.3905E-01  0.3905E-01
     -8.320  0.3488E-02  0.3488E-02  0.3941E-01  0.3941E-01
     -8.218  0.5643E-02  0.5643E-02  0.3999E-01  0.3999E-01
     -8.115  0.4004E-02  0.4003E-02  0.4040E-01  0.4040E-01
     -8.012  0.8804E-02  0.8803E-02  0.4130E-01  0.4130E-01
     -7.909  0.5826E-02  0.5828E-02  0.4190E-01  0.4190E-01
     -7.806  0.3140E-02  0.3140E-02  0.4223E-01  0.4223E-01
     -7.704  0.4479E-02  0.4480E-02  0.4269E-01  0.4269E-01
     -7.601  0.4854E-02  0.4853E-02  0.4319E-01  0.4319E-01
     -7.498  0.3582E-02  0.3583E-02  0.4355E-01  0.4355E-01
     -7.395  0.1215E-01  0.1215E-01  0.4480E-01  0.4480E-01
     -7.292  0.1587E-02  0.1586E-02  0.4497E-01  0.4497E-01
     -7.189  0.3171E-02  0.3173E-02  0.4529E-01  0.4529E-01
     -7.087  0.1895E-02  0.1893E-02  0.4549E-01  0.4549E-01
     -6.984  0.2826E-02  0.2827E-02  0.4578E-01  0.4578E-01
     -6.881  0.9638E-03  0.9641E-03  0.4588E-01  0.4588E-01
     -6.778  0.3488E-02  0.3492E-02  0.4624E-01  0.4624E-01
     -6.675  0.9553E-03  0.9518E-03  0.4633E-01  0.4633E-01
     -6.573  0.4890E-04  0.4916E-04  0.4634E-01  0.4634E-01
     -6.470  0.2444E-02  0.2446E-02  0.4659E-01  0.4659E-01
     -6.367  0.1062E-02  0.1060E-02  0.4670E-01  0.4670E-01
     -6.264  0.5448E-02  0.5448E-02  0.4726E-01  0.4726E-01
     -6.161  0.7234E-03  0.7226E-03  0.4733E-01  0.4733E-01
     -6.058  0.1384E-06  0.1380E-06  0.4733E-01  0.4733E-01
     -5.956  0.5843E-04  0.5863E-04  0.4734E-01  0.4734E-01
     -5.853  0.2358E-02  0.2359E-02  0.4758E-01  0.4758E-01
     -5.750  0.4132E-02  0.4131E-02  0.4801E-01  0.4801E-01
     -5.647  0.2393E-02  0.2392E-02  0.4825E-01  0.4825E-01
     -5.544  0.4502E-02  0.4501E-02  0.4872E-01  0.4872E-01
     -5.442  0.9027E-02  0.9027E-02  0.4964E-01  0.4964E-01
     -5.339  0.6966E-02  0.6967E-02  0.5036E-01  0.5036E-01
     -5.236  0.1335E-01  0.1335E-01  0.5173E-01  0.5173E-01
     -5.133  0.9491E-02  0.9493E-02  0.5271E-01  0.5271E-01
     -5.030  0.8063E-02  0.8067E-02  0.5354E-01  0.5354E-01
     -4.927  0.1155E-01  0.1155E-01  0.5473E-01  0.5473E-01
     -4.825  0.1020E-01  0.1019E-01  0.5577E-01  0.5577E-01
     -4.722  0.1090E-01  0.1090E-01  0.5689E-01  0.5689E-01
     -4.619  0.1729E-01  0.1729E-01  0.5867E-01  0.5867E-01
     -4.516  0.1174E-01  0.1174E-01  0.5988E-01  0.5988E-01
     -4.413  0.1426E-01  0.1426E-01  0.6135E-01  0.6135E-01
     -4.311  0.1582E-01  0.1581E-01  0.6297E-01  0.6297E-01
     -4.208  0.1811E-01  0.1814E-01  0.6483E-01  0.6484E-01
     -4.105  0.1607E-01  0.1606E-01  0.6649E-01  0.6649E-01
     -4.002  0.1479E-01  0.1480E-01  0.6801E-01  0.6801E-01
     -3.899  0.1219E-01  0.1219E-01  0.6926E-01  0.6926E-01
     -3.796  0.1166E-01  0.1166E-01  0.7046E-01  0.7046E-01
     -3.694  0.2079E-01  0.2084E-01  0.7260E-01  0.7260E-01
     -3.591  0.1938E-01  0.1935E-01  0.7459E-01  0.7459E-01
     -3.488  0.1452E-01  0.1452E-01  0.7608E-01  0.7609E-01
     -3.385  0.1171E-01  0.1172E-01  0.7729E-01  0.7729E-01
     -3.282  0.1506E-01  0.1505E-01  0.7884E-01  0.7884E-01
     -3.180  0.1513E-01  0.1513E-01  0.8039E-01  0.8039E-01
     -3.077  0.1289E-01  0.1290E-01  0.8172E-01  0.8172E-01
     -2.974  0.1549E-01  0.1549E-01  0.8331E-01  0.8331E-01
     -2.871  0.1314E-01  0.1316E-01  0.8466E-01  0.8467E-01
     -2.768  0.1182E-01  0.1181E-01  0.8588E-01  0.8588E-01
     -2.665  0.1318E-01  0.1322E-01  0.8723E-01  0.8724E-01
     -2.563  0.2384E-01  0.2382E-01  0.8968E-01  0.8969E-01
     -2.460  0.2428E-01  0.2426E-01  0.9218E-01  0.9218E-01
     -2.357  0.1802E-01  0.1804E-01  0.9403E-01  0.9404E-01
     -2.254  0.2325E-01  0.2327E-01  0.9642E-01  0.9643E-01
     -2.151  0.3118E-01  0.3119E-01  0.9963E-01  0.9964E-01
     -2.049  0.3662E-01  0.3660E-01  0.1034E+00  0.1034E+00
     -1.946  0.3113E-01  0.3114E-01  0.1066E+00  0.1066E+00
     -1.843  0.3265E-01  0.3263E-01  0.1100E+00  0.1100E+00
     -1.740  0.3061E-01  0.3064E-01  0.1131E+00  0.1131E+00
     -1.637  0.3232E-01  0.3232E-01  0.1164E+00  0.1164E+00
     -1.534  0.2345E-01  0.2350E-01  0.1188E+00  0.1188E+00
     -1.432  0.9750E-02  0.9827E-02  0.1198E+00  0.1199E+00
     -1.329  0.1761E-01  0.1809E-01  0.1216E+00  0.1217E+00
     -1.226  0.2118E-01  0.2126E-01  0.1238E+00  0.1239E+00
     -1.123  0.2058E-01  0.2022E-01  0.1259E+00  0.1260E+00
     -1.020  0.1368E-01  0.1333E-01  0.1273E+00  0.1274E+00
     -0.918  0.6731E-02  0.6710E-02  0.1280E+00  0.1280E+00
     -0.815  0.8524E-03  0.8192E-03  0.1281E+00  0.1281E+00
     -0.712  0.1003E-02  0.1004E-02  0.1282E+00  0.1282E+00
     -0.609  0.1869E-02  0.1870E-02  0.1284E+00  0.1284E+00
     -0.506  0.5236E-03  0.5251E-03  0.1285E+00  0.1285E+00
     -0.403  0.3397E-02  0.3437E-02  0.1288E+00  0.1288E+00
     -0.301  0.3939E-02  0.3896E-02  0.1292E+00  0.1292E+00
     -0.198  0.3158E-02  0.3161E-02  0.1296E+00  0.1296E+00
     -0.095  0.1078E-02  0.1074E-02  0.1297E+00  0.1297E+00
      0.008  0.1402E-02  0.1439E-02  0.1298E+00  0.1298E+00
      0.111  0.3792E-02  0.3767E-02  0.1302E+00  0.1302E+00
      0.213  0.1282E-02  0.1271E-02  0.1303E+00  0.1303E+00
      0.316  0.1182E-02  0.1180E-02  0.1305E+00  0.1305E+00
      0.419  0.7152E-02  0.7153E-02  0.1312E+00  0.1312E+00
      0.522  0.4007E-03  0.4010E-03  0.1312E+00  0.1312E+00
      0.625  0.1974E-02  0.1975E-02  0.1314E+00  0.1314E+00
      0.728  0.5288E-02  0.5288E-02  0.1320E+00  0.1320E+00
      0.830  0.2776E-02  0.2778E-02  0.1323E+00  0.1323E+00
      0.933  0.1380E-02  0.1380E-02  0.1324E+00  0.1324E+00
      1.036  0.5136E-02  0.5133E-02  0.1329E+00  0.1329E+00
      1.139  0.2552E-02  0.2554E-02  0.1332E+00  0.1332E+00
      1.242  0.5552E-02  0.5558E-02  0.1338E+00  0.1338E+00
      1.345  0.4027E-02  0.4023E-02  0.1342E+00  0.1342E+00
      1.447  0.5147E-02  0.5150E-02  0.1347E+00  0.1347E+00
      1.550  0.2639E-02  0.2640E-02  0.1350E+00  0.1350E+00
      1.653  0.6761E-02  0.6756E-02  0.1357E+00  0.1357E+00
      1.756  0.8863E-02  0.8877E-02  0.1366E+00  0.1366E+00
      1.859  0.7581E-02  0.7568E-02  0.1374E+00  0.1374E+00
      1.961  0.3549E-02  0.3552E-02  0.1377E+00  0.1377E+00
      2.064  0.3310E-02  0.3305E-02  0.1381E+00  0.1381E+00
      2.167  0.1008E-01  0.1009E-01  0.1391E+00  0.1391E+00
      2.270  0.9101E-02  0.9089E-02  0.1400E+00  0.1400E+00
      2.373  0.5039E-02  0.5059E-02  0.1406E+00  0.1406E+00
      2.476  0.3638E-02  0.3621E-02  0.1409E+00  0.1409E+00
      2.578  0.9062E-02  0.9069E-02  0.1419E+00  0.1419E+00
      2.681  0.9392E-02  0.9381E-02  0.1428E+00  0.1428E+00
      2.784  0.5861E-03  0.5848E-03  0.1429E+00  0.1429E+00
      2.887  0.3385E-02  0.3386E-02  0.1432E+00  0.1432E+00
      2.990  0.6921E-02  0.6921E-02  0.1440E+00  0.1440E+00
      3.092  0.4551E-03  0.4547E-03  0.1440E+00  0.1440E+00
      3.195  0.7676E-07  0.7662E-07  0.1440E+00  0.1440E+00
      3.298  0.5418E-14  0.5403E-14  0.1440E+00  0.1440E+00
      3.401  0.0000E+00  0.0000E+00  0.1440E+00  0.1440E+00
      3.504  0.0000E+00  0.0000E+00  0.1440E+00  0.1440E+00
      3.607  0.0000E+00  0.0000E+00  0.1440E+00  0.1440E+00
      3.709  0.0000E+00  0.0000E+00  0.1440E+00  0.1440E+00
      3.812  0.0000E+00  0.0000E+00  0.1440E+00  0.1440E+00
      3.915  0.0000E+00  0.0000E+00  0.1440E+00  0.1440E+00
      4.018  0.0000E+00  0.0000E+00  0.1440E+00  0.1440E+00
      4.121  0.3269E-12  0.2638E-12  0.1440E+00  0.1440E+00
      4.223  0.7667E-06  0.6801E-06  0.1440E+00  0.1440E+00
      4.326  0.7821E-03  0.7556E-03  0.1441E+00  0.1441E+00
      4.429  0.4155E-02  0.4140E-02  0.1445E+00  0.1445E+00
      4.532  0.3560E-02  0.3453E-02  0.1449E+00  0.1449E+00
      4.635  0.3804E-02  0.3779E-02  0.1453E+00  0.1452E+00
      4.738  0.4935E-02  0.4691E-02  0.1458E+00  0.1457E+00
      4.840  0.4710E-02  0.5024E-02  0.1463E+00  0.1462E+00
      4.943  0.9576E-02  0.9196E-02  0.1472E+00  0.1472E+00
      5.046  0.1361E-01  0.1340E-01  0.1486E+00  0.1486E+00
      5.149  0.1151E-01  0.1192E-01  0.1498E+00  0.1498E+00
      5.252  0.9683E-02  0.9556E-02  0.1508E+00  0.1508E+00
      5.354  0.4397E-02  0.4499E-02  0.1513E+00  0.1512E+00
      5.457  0.3536E-02  0.3751E-02  0.1516E+00  0.1516E+00
      5.560  0.7783E-03  0.4488E-03  0.1517E+00  0.1517E+00
      5.663  0.4375E-02  0.3247E-02  0.1522E+00  0.1520E+00
      5.766  0.6847E-02  0.6809E-02  0.1529E+00  0.1527E+00
      5.869  0.1109E-01  0.1151E-01  0.1540E+00  0.1539E+00
      5.971  0.5456E-02  0.5829E-02  0.1546E+00  0.1545E+00
      6.074  0.1139E-01  0.1157E-01  0.1557E+00  0.1557E+00
      6.177  0.1362E-01  0.1392E-01  0.1571E+00  0.1571E+00
      6.280  0.5644E-02  0.5190E-02  0.1577E+00  0.1576E+00
      6.383  0.1006E-01  0.8759E-02  0.1588E+00  0.1585E+00
      6.485  0.1156E-01  0.1028E-01  0.1599E+00  0.1596E+00
      6.588  0.8179E-02  0.8350E-02  0.1608E+00  0.1605E+00
      6.691  0.1131E-01  0.1063E-01  0.1619E+00  0.1616E+00
      6.794  0.6938E-02  0.7249E-02  0.1627E+00  0.1623E+00
      6.897  0.4619E-02  0.7021E-02  0.1631E+00  0.1630E+00
      7.000  0.7953E-02  0.7834E-02  0.1640E+00  0.1638E+00
      7.102  0.7124E-02  0.7047E-02  0.1647E+00  0.1645E+00
      7.205  0.7924E-02  0.3506E-02  0.1655E+00  0.1649E+00
      7.308  0.9095E-02  0.8681E-02  0.1664E+00  0.1658E+00
      7.411  0.6863E-02  0.8389E-02  0.1671E+00  0.1667E+00
      7.514  0.1337E-01  0.1108E-01  0.1685E+00  0.1678E+00
      7.616  0.1422E-01  0.1731E-01  0.1700E+00  0.1696E+00
      7.719  0.5911E-02  0.6738E-02  0.1706E+00  0.1703E+00
      7.822  0.9016E-02  0.8650E-02  0.1715E+00  0.1712E+00
      7.925  0.1097E-01  0.8779E-02  0.1726E+00  0.1721E+00
      8.028  0.1264E-01  0.1109E-01  0.1739E+00  0.1732E+00
      8.131  0.1033E-01  0.1503E-01  0.1750E+00  0.1748E+00
      8.233  0.1122E-01  0.8756E-02  0.1762E+00  0.1757E+00
      8.336  0.9310E-02  0.1117E-01  0.1771E+00  0.1768E+00
      8.439  0.6984E-02  0.7936E-02  0.1778E+00  0.1776E+00
      8.542  0.1059E-01  0.9992E-02  0.1789E+00  0.1786E+00
      8.645  0.9526E-02  0.1041E-01  0.1799E+00  0.1797E+00
      8.747  0.9538E-03  0.2708E-02  0.1800E+00  0.1800E+00
      8.850  0.8192E-06  0.4138E-04  0.1800E+00  0.1800E+00
      8.953  0.3434E-12  0.1068E-08  0.1800E+00  0.1800E+00
      9.056  0.0000E+00  0.9598E-17  0.1800E+00  0.1800E+00
      9.159  0.0000E+00  0.0000E+00  0.1800E+00  0.1800E+00
      9.262  0.0000E+00  0.0000E+00  0.1800E+00  0.1800E+00
      9.364  0.0000E+00  0.0000E+00  0.1800E+00  0.1800E+00
      9.467  0.0000E+00  0.0000E+00  0.1800E+00  0.1800E+00
      9.570  0.0000E+00  0.0000E+00  0.1800E+00  0.1800E+00
      9.673  0.0000E+00  0.0000E+00  0.1800E+00  0.1800E+00
      9.776  0.0000E+00  0.0000E+00  0.1800E+00  0.1800E+00
      9.878  0.0000E+00  0.0000E+00  0.1800E+00  0.1800E+00
      9.981  0.0000E+00  0.0000E+00  0.1800E+00  0.1800E+00
     10.084  0.0000E+00  0.0000E+00  0.1800E+00  0.1800E+00
