vasp.5.4.1 08Jul2015 (build Apr 24 2014 00:09:29) complex standard with constrain (TS)    
 executed on IBM of Center for Computational Chemistry date 2018.03.17  22:28:30
 running on   24 total cores
 distrk:  each k-point on   24 cores,    1 groups
 distr:  one band on NCORES_PER_BAND=   6 cores,    4 groups


--------------------------------------------------------------------------------------------------------


 INCAR:
 POTCAR:    PAW_PBE O 08Apr2002                   
 POTCAR:    PAW_PBE Pb 08Apr2002                  
 POTCAR:    PAW_PBE O 08Apr2002                   
   VRHFIN =O: s2p4                                                              
   LEXCH  = PE                                                                  
   EATOM  =   432.3788 eV,   31.7789 Ry                                         
                                                                                
   TITEL  = PAW_PBE O 08Apr2002                                                 
   LULTRA =        F    use ultrasoft PP ?                                      
   IUNSCR =        1    unscreen: 0-lin 1-nonlin 2-no                           
   RPACOR =    1.200    partial core radius                                     
   POMASS =   16.000; ZVAL   =    6.000    mass and valenz                      
   RCORE  =    1.520    outmost cutoff radius                                   
   RWIGS  =    1.550; RWIGS  =    0.820    wigner-seitz radius (au A)           
   ENMAX  =  400.000; ENMIN  =  300.000 eV                                      
   ICORE  =        2    local potential                                         
   LCOR   =        T    correct aug charges                                     
   LPAW   =        T    paw PP                                                  
   EAUG   =  605.392                                                            
   DEXC   =    0.000                                                            
   RMAX   =    1.553    core radius for proj-oper                               
   RAUG   =    1.300    factor for augmentation sphere                          
   RDEP   =    1.550    radius for radial grids                                 
   RDEPT  =    1.329    core radius for aug-charge                              
                                                                                
   Atomic configuration                                                         
    4 entries                                                                   
     n  l   j            E        occ.                                          
     1  0  0.50      -514.6923   2.0000                                         
     2  0  0.50       -23.9615   2.0000                                         
     2  1  0.50        -9.0305   4.0000                                         
     3  2  1.50        -9.5241   0.0000                                         
   Description                                                                  
     l       E           TYP  RCUT    TYP  RCUT                                 
     0    -23.9615318     23  1.200                                             
     0     -9.5240782     23  1.200                                             
     1     -9.0304911     23  1.520                                             
     1      8.1634956     23  1.520                                             
     2     -9.5240782      7  1.500                                             
  local pseudopotential read in
  partial core-charges read in
  partial kinetic energy density read in
  kinetic energy density of atom read in
  atomic valenz-charges read in
  non local Contribution for L=           0  read in
    real space projection operators read in
  non local Contribution for L=           0  read in
    real space projection operators read in
  non local Contribution for L=           1  read in
    real space projection operators read in
  non local Contribution for L=           1  read in
    real space projection operators read in
    PAW grid and wavefunctions read in
 
   number of l-projection  operators is LMAX  =           4
   number of lm-projection operators is LMMAX =           8
 
 POTCAR:    PAW_PBE Pb 08Apr2002                  
   VRHFIN =Pb:                                                                  
   LEXCH  = PE                                                                  
   EATOM  =    96.9868 eV,    7.1283 Ry                                         
                                                                                
   TITEL  = PAW_PBE Pb 08Apr2002                                                
   LULTRA =        F    use ultrasoft PP ?                                      
   IUNSCR =        1    unscreen: 0-lin 1-nonlin 2-no                           
   RPACOR =    2.200    partial core radius                                     
   POMASS =  207.200; ZVAL   =    4.000    mass and valenz                      
   RCORE  =    3.100    outmost cutoff radius                                   
   RWIGS  =    3.260; RWIGS  =    1.725    wigner-seitz radius (au A)           
   ENMAX  =   97.973; ENMIN  =   73.480 eV                                      
   ICORE  =        3    local potential                                         
   LCOR   =        T    correct aug charges                                     
   LPAW   =        T    paw PP                                                  
   EAUG   =  234.873                                                            
   DEXC   =    0.000                                                            
   RMAX   =    3.158    core radius for proj-oper                               
   RAUG   =    1.300    factor for augmentation sphere                          
   RDEP   =    3.202    radius for radial grids                                 
   RDEPT  =    2.659    core radius for aug-charge                              
                                                                                
   Atomic configuration                                                         
   17 entries                                                                   
     n  l   j            E        occ.                                          
     1  0  0.50    -88091.8466   2.0000                                         
     2  0  0.50    -15753.4197   2.0000                                         
     2  1  1.50    -13508.1797   6.0000                                         
     3  0  0.50     -3781.7194   2.0000                                         
     3  1  1.50     -3138.2529   6.0000                                         
     3  2  2.50     -2483.2977  10.0000                                         
     4  0  0.50      -856.2895   2.0000                                         
     4  1  1.50      -645.4943   6.0000                                         
     4  2  2.50      -401.8768  10.0000                                         
     4  3  3.50      -132.9059  14.0000                                         
     5  0  0.50      -144.0950   2.0000                                         
     5  1  1.50       -85.7879   6.0000                                         
     5  2  2.50       -21.1769  10.0000                                         
     6  0  0.50       -12.0372   2.0000                                         
     6  1  1.50        -3.4971   2.0000                                         
     6  2  2.50        -1.3606   0.0000                                         
     5  3  2.50        -2.7212   0.0000                                         
   Description                                                                  
     l       E           TYP  RCUT    TYP  RCUT                                 
     0    -12.0371566     23  3.100                                             
     0    -13.3977392     23  3.100                                             
     1     -3.4971341     23  3.100                                             
     1     -5.4423304     23  3.100                                             
     2     -1.3605826     23  3.100                                             
     3     -1.3605826     23  3.100                                             
  local pseudopotential read in
  partial core-charges read in
  partial kinetic energy density read in
  atomic valenz-charges read in
  non local Contribution for L=           0  read in
    real space projection operators read in
  non local Contribution for L=           0  read in
    real space projection operators read in
  non local Contribution for L=           1  read in
    real space projection operators read in
  non local Contribution for L=           1  read in
    real space projection operators read in
  non local Contribution for L=           2  read in
    real space projection operators read in
    PAW grid and wavefunctions read in
 
   number of l-projection  operators is LMAX  =           5
   number of lm-projection operators is LMMAX =          13
 
 Optimization of the real space projectors (new method)

 maximal supplied QI-value         = 24.76
 optimisation between [QCUT,QGAM] = [ 11.39, 22.77] = [ 36.31,145.25] Ry 
 Optimized for a Real-space Cutoff    1.10 Angstroem

   l    n(q)    QCUT    max X(q) W(low)/X(q) W(high)/X(q)  e(spline) 
   0      7    11.387    20.381    0.22E-03    0.48E-03    0.18E-06
   0      7    11.387    15.268    0.22E-03    0.52E-03    0.19E-06
   1      7    11.387     5.964    0.22E-03    0.73E-03    0.24E-06
   1      7    11.387     5.382    0.19E-03    0.60E-03    0.21E-06
 Optimization of the real space projectors (new method)

 maximal supplied QI-value         = 12.09
 optimisation between [QCUT,QGAM] = [ 11.37, 22.86] = [ 36.19,146.31] Ry 
 Optimized for a Real-space Cutoff    1.66 Angstroem

   l    n(q)    QCUT    max X(q) W(low)/X(q) W(high)/X(q)  e(spline) 
   0     11    11.369   135.111    0.12E-03    0.69E-04    0.19E-05
   0     11    11.369   146.850    0.11E-03    0.65E-04    0.18E-05
   1     11    11.369   148.016    0.17E-03    0.32E-03    0.89E-06
   1     11    11.369   122.989    0.17E-03    0.32E-03    0.91E-06
   2     10    11.369     8.916    0.12E-03    0.45E-04    0.33E-06
  PAW_PBE O 08Apr2002                   :
 energy of atom  1       EATOM= -432.3788
 kinetic energy error for atom=    0.0224 (will be added to EATOM!!)
  PAW_PBE Pb 08Apr2002                  :
 energy of atom  2       EATOM=  -96.9868
 kinetic energy error for atom=    0.0000 (will be added to EATOM!!)
 
 
 POSCAR: AutoCreatByScript                       
  positions in direct lattice
  No initial velocities read in
 exchange correlation table for  LEXCH =        8
   RHO(1)=    0.500       N(1)  =     2000
   RHO(2)=  100.500       N(2)  =     4000
 


--------------------------------------------------------------------------------------------------------


 ion  position               nearest neighbor table
   1  0.366  0.055  0.000-  33 2.19  34 2.19
   2  0.866  0.055  0.000-  33 2.19  34 2.19
   3  0.116  0.362  0.058-  33 2.16  35 2.19  36 2.19
   4  0.616  0.362  0.058-  34 2.16  35 2.19  36 2.19
   5  0.116  0.747  0.058-  33 2.16  35 2.19  36 2.19
   6  0.616  0.747  0.058-  34 2.16  35 2.19  36 2.19
   7  0.366  0.055  0.116-  37 2.16  34 2.19  33 2.19
   8  0.866  0.055  0.116-  38 2.16  34 2.19  33 2.19
   9  0.366  0.555  0.151-  35 2.16  39 2.19  40 2.19
  10  0.866  0.555  0.151-  36 2.16  39 2.19  40 2.19
  11  0.116  0.247  0.209-  39 2.16  38 2.19  37 2.19
  12  0.616  0.247  0.209-  40 2.16  38 2.19  37 2.19
  13  0.116  0.862  0.209-  39 2.16  38 2.19  37 2.19
  14  0.616  0.862  0.209-  40 2.16  38 2.19  37 2.19
  15  0.366  0.555  0.268-  43 2.16  40 2.19  39 2.19
  16  0.866  0.555  0.268-  44 2.16  40 2.19  39 2.19
  17  0.366  0.055  0.302-  37 2.16  41 2.19  42 2.19
  18  0.866  0.055  0.302-  38 2.16  41 2.19  42 2.19
  19  0.116  0.362  0.360-  41 2.16  43 2.19  44 2.19
  20  0.616  0.362  0.360-  42 2.16  43 2.19  44 2.19
  21  0.116  0.747  0.360-  41 2.16  43 2.19  44 2.19
  22  0.616  0.747  0.360-  42 2.16  43 2.19  44 2.19
  23  0.366  0.055  0.419-  45 2.16  42 2.19  41 2.19
  24  0.866  0.055  0.419-  46 2.16  42 2.19  41 2.19
  25  0.366  0.555  0.453-  43 2.16  47 2.19  48 2.19
  26  0.866  0.555  0.453-  44 2.16  47 2.19  48 2.19
  27  0.116  0.247  0.512-  47 2.16  46 2.19  45 2.19
  28  0.616  0.247  0.512-  48 2.16  46 2.19  45 2.19
  29  0.116  0.862  0.512-  47 2.16  46 2.19  45 2.19
  30  0.616  0.862  0.512-  48 2.16  46 2.19  45 2.19
  31  0.366  0.555  0.570-  47 2.19  48 2.19
  32  0.866  0.555  0.570-  47 2.19  48 2.19
  33  0.116  0.055  0.058-   3 2.16   5 2.16   7 2.19   8 2.19   1 2.19   2 2.19  34 3.43  34 3.43
                            36 3.91  35 3.91  36 3.91  35 3.91  38 3.91  37 3.91
  34  0.616  0.055  0.058-   4 2.16   6 2.16   7 2.19   8 2.19   1 2.19   2 2.19  33 3.43  33 3.43
                            36 3.91  35 3.91  36 3.91  35 3.91  38 3.91  37 3.91
  35  0.366  0.555  0.058-   9 2.16   6 2.19   5 2.19   4 2.19   3 2.19  36 3.43  36 3.43  33 3.91
                            33 3.91  34 3.91  34 3.91  40 3.91  39 3.91
  36  0.866  0.555  0.058-  10 2.16   6 2.19   5 2.19   4 2.19   3 2.19  35 3.43  35 3.43  33 3.91
                            33 3.91  34 3.91  34 3.91  40 3.91  39 3.91
  37  0.366  0.055  0.209-   7 2.16  17 2.16  12 2.19  11 2.19  14 2.19  13 2.19  38 3.43  38 3.43
                            40 3.91  39 3.91  40 3.91  39 3.91  42 3.91  34 3.91  33 3.91  41 3.91
  38  0.866  0.055  0.209-   8 2.16  18 2.16  12 2.19  11 2.19  14 2.19  13 2.19  37 3.43  37 3.43
                            40 3.91  39 3.91  40 3.91  39 3.91  42 3.91  34 3.91  33 3.91  41 3.91
  39  0.116  0.555  0.209-  13 2.16  11 2.16  15 2.19  16 2.19   9 2.19  10 2.19  40 3.43  40 3.43
                            37 3.91  37 3.91  38 3.91  38 3.91  44 3.91  36 3.91  35 3.91  43 3.91
  40  0.616  0.555  0.209-  14 2.16  12 2.16  15 2.19  16 2.19   9 2.19  10 2.19  39 3.43  39 3.43
                            37 3.91  37 3.91  38 3.91  38 3.91  44 3.91  36 3.91  35 3.91  43 3.91
  41  0.116  0.055  0.360-  19 2.16  21 2.16  17 2.19  18 2.19  23 2.19  24 2.19  42 3.43  42 3.43
                            44 3.91  43 3.91  44 3.91  43 3.91  37 3.91  38 3.91  46 3.91  45 3.91
  42  0.616  0.055  0.360-  20 2.16  22 2.16  17 2.19  18 2.19  23 2.19  24 2.19  41 3.43  41 3.43
                            44 3.91  43 3.91  44 3.91  43 3.91  37 3.91  38 3.91  46 3.91  45 3.91
  43  0.366  0.555  0.360-  15 2.16  25 2.16  22 2.19  21 2.19  20 2.19  19 2.19  44 3.43  44 3.43
                            41 3.91  41 3.91  42 3.91  42 3.91  39 3.91  40 3.91  48 3.91  47 3.91
  44  0.866  0.555  0.360-  16 2.16  26 2.16  22 2.19  21 2.19  20 2.19  19 2.19  43 3.43  43 3.43
                            41 3.91  41 3.91  42 3.91  42 3.91  39 3.91  40 3.91  48 3.91  47 3.91
  45  0.366  0.055  0.512-  23 2.16  27 2.19  28 2.19  29 2.19  30 2.19  46 3.43  46 3.43  48 3.91
                            47 3.91  48 3.91  47 3.91  41 3.91  42 3.91
  46  0.866  0.055  0.512-  24 2.16  27 2.19  28 2.19  29 2.19  30 2.19  45 3.43  45 3.43  48 3.91
                            47 3.91  48 3.91  47 3.91  41 3.91  42 3.91
  47  0.116  0.555  0.512-  29 2.16  27 2.16  31 2.19  32 2.19  25 2.19  26 2.19  48 3.43  48 3.43
                            45 3.91  45 3.91  46 3.91  46 3.91  43 3.91  44 3.91
  48  0.616  0.555  0.512-  30 2.16  28 2.16  31 2.19  32 2.19  25 2.19  26 2.19  47 3.43  47 3.43
                            45 3.91  45 3.91  46 3.91  46 3.91  43 3.91  44 3.91
 

IMPORTANT INFORMATION: All symmetrisations will be switched off!
NOSYMM: (Re-)initialisation of all symmetry stuff for point group C_1.

 
 
 KPOINTS: mesh auto                               

Automatic generation of k-mesh.
Space group operators:
 irot       det(A)        alpha          n_x          n_y          n_z        tau_x        tau_y        tau_z
    1     1.000000     0.000000     1.000000     0.000000     0.000000     0.000000     0.000000     0.000000
 
 Subroutine IBZKPT returns following result:
 ===========================================
 
 Found      5 irreducible k-points:
 
 Following reciprocal coordinates:
            Coordinates               Weight
  0.000000  0.000000  0.000000      1.000000
  0.333333  0.000000  0.000000      2.000000
  0.000000  0.333333  0.000000      2.000000
  0.333333  0.333333  0.000000      2.000000
 -0.333333  0.333333  0.000000      2.000000
 
 Following cartesian coordinates:
            Coordinates               Weight
  0.000000  0.000000  0.000000      1.000000
  0.000000  0.000000  0.048582      2.000000
  0.033550 -0.033550  0.000000      2.000000
  0.033550 -0.033550  0.048582      2.000000
  0.033550 -0.033550 -0.048582      2.000000
 


--------------------------------------------------------------------------------------------------------




 Dimension of arrays:
   k-points           NKPTS =      5   k-points in BZ     NKDIM =      5   number of bands    NBANDS=    180
   number of dos      NEDOS =    301   number of ions     NIONS =     48
   non local maximal  LDIM  =      5   non local SUM 2l+1 LMDIM =     13
   total plane-waves  NPLWV = 486000
   max r-space proj   IRMAX =   8352   max aug-charges    IRDMAX=  49830
   dimension x,y,z NGX =    50 NGY =   54 NGZ =  180
   dimension x,y,z NGXF=   100 NGYF=  108 NGZF=  360
   support grid    NGXF=   100 NGYF=  108 NGZF=  360
   ions per type =              32  16
 NGX,Y,Z   is equivalent  to a cutoff of  12.11, 12.78, 12.87 a.u.
 NGXF,Y,Z  is equivalent  to a cutoff of  24.23, 25.56, 25.75 a.u.


 I would recommend the setting:
   dimension x,y,z NGX =    50 NGY =   51 NGZ =  170
 SYSTEM =  PbO2_suf110_2x1x4_2fix                  
 POSCAR =  AutoCreatByScript                       

 Startparameter for this run:
   NWRITE =      2    write-flag & timer
   PREC   = accura    normal or accurate (medium, high low for compatibility)
   ISTART =      0    job   : 0-new  1-cont  2-samecut
   ICHARG =      2    charge: 1-file 2-atom 10-const
   ISPIN  =      2    spin polarized calculation?
   LNONCOLLINEAR =      F non collinear calculations
   LSORBIT =      F    spin-orbit coupling
   INIWAV =      1    electr: 0-lowe 1-rand  2-diag
   LASPH  =      F    aspherical Exc in radial PAW
   METAGGA=      F    non-selfconsistent MetaGGA calc.

 Electronic Relaxation 1
   ENCUT  =  500.0 eV  36.75 Ry    6.06 a.u.  12.51 12.81 42.38*2*pi/ulx,y,z
   ENINI  =  500.0     initial cutoff
   ENAUG  =  605.4 eV  augmentation charge cutoff
   NELM   =    300;   NELMIN=  3; NELMDL= -5     # of ELM steps 
   EDIFF  = 0.1E-03   stopping-criterion for ELM
   LREAL  =      T    real-space projection
   NLSPLINE    = F    spline interpolate recip. space projectors
   LCOMPAT=      F    compatible to vasp.4.4
   GGA_COMPAT  = T    GGA compatible to vasp.4.4-vasp.4.6
   LMAXPAW     = -100 max onsite density
   LMAXMIX     =    2 max onsite mixed and CHGCAR
   VOSKOWN=      0    Vosko Wilk Nusair interpolation
   ROPT   =   -0.00025  -0.00025
 Ionic relaxation
   EDIFFG = -.5E-01   stopping-criterion for IOM
   NSW    =   1000    number of steps for IOM
   NBLOCK =      1;   KBLOCK =   1000    inner block; outer block 
   IBRION =      2    ionic relax: 0-MD 1-quasi-New 2-CG
   NFREE  =      1    steps in history (QN), initial steepest desc. (CG)
   ISIF   =      2    stress and relaxation
   IWAVPR =     11    prediction:  0-non 1-charg 2-wave 3-comb
   ISYM   =      0    0-nonsym 1-usesym 2-fastsym
   LCORR  =      T    Harris-Foulkes like correction to forces

   POTIM  = 0.1000    time-step for ionic-motion
   TEIN   =    0.0    initial temperature
   TEBEG  =    0.0;   TEEND  =   0.0 temperature during run
   SMASS  =  -3.00    Nose mass-parameter (am)
   estimated Nose-frequenzy (Omega)   =  0.10E-29 period in steps =****** mass=  -0.108E-26a.u.
   SCALEE = 1.0000    scale energy and forces
   NPACO  =    256;   APACO  = 16.0  distance and # of slots for P.C.
   PSTRESS=    0.0 pullay stress

  Mass of Ions in am
   POMASS =  16.00207.20
  Ionic Valenz
   ZVAL   =   6.00  4.00
  Atomic Wigner-Seitz radii
   RWIGS  =  -1.00 -1.00
  virtual crystal weights 
   VCA    =   1.00  1.00
   NELECT =     256.0000    total number of electrons
   NUPDOWN=      -1.0000    fix difference up-down

 DOS related values:
   EMIN   =  10.00;   EMAX   =-10.00  energy-range for DOS
   EFERMI =   0.00
   ISMEAR =     0;   SIGMA  =   0.05  broadening in eV -4-tet -1-fermi 0-gaus

 Electronic relaxation 2 (details)
   IALGO  =     68    algorithm
   LDIAG  =      T    sub-space diagonalisation (order eigenvalues)
   LSUBROT=      F    optimize rotation matrix (better conditioning)
   TURBO    =      0    0=normal 1=particle mesh
   IRESTART =      0    0=no restart 2=restart with 2 vectors
   NREBOOT  =      0    no. of reboots
   NMIN     =      0    reboot dimension
   EREF     =   0.00    reference energy to select bands
   IMIX   =      4    mixing-type and parameters
     AMIX     =   0.40;   BMIX     =  1.00
     AMIX_MAG =   1.60;   BMIX_MAG =  1.00
     AMIN     =   0.10
     WC   =   100.;   INIMIX=   1;  MIXPRE=   1;  MAXMIX= -45

 Intra band minimization:
   WEIMIN = 0.0010     energy-eigenvalue tresh-hold
   EBREAK =  0.14E-06  absolut break condition
   DEPER  =   0.30     relativ break condition  

   TIME   =   0.40     timestep for ELM

  volume/ion in A,a.u.               =      23.34       157.53
  Fermi-wavevector in a.u.,A,eV,Ry     =   1.000811  1.891258 13.627893  1.001622
  Thomas-Fermi vector in A             =   2.133191
 
 Write flags
   LWAVE  =      F    write WAVECAR
   LCHARG =      F    write CHGCAR
   LVTOT  =      F    write LOCPOT, total local potential
   LVHAR  =      F    write LOCPOT, Hartree potential only
   LELF   =      F    write electronic localiz. function (ELF)
   LORBIT =      0    0 simple, 1 ext, 2 COOP (PROOUT)


 Dipole corrections
   LMONO  =      F    monopole corrections only (constant potential shift)
   LDIPOL =      F    correct potential (dipole corrections)
   IDIPOL =      0    1-x, 2-y, 3-z, 4-all directions 
   EPSILON=  1.0000000 bulk dielectric constant

 Exchange correlation treatment:
   GGA     =    --    GGA type
   LEXCH   =     8    internal setting for exchange type
   VOSKOWN=      0    Vosko Wilk Nusair interpolation
   LHFCALC =     F    Hartree Fock is set to
   LHFONE  =     F    Hartree Fock one center treatment
   AEXX    =    0.0000 exact exchange contribution

 Linear response parameters
   LEPSILON=     F    determine dielectric tensor
   LRPA    =     F    only Hartree local field effects (RPA)
   LNABLA  =     F    use nabla operator in PAW spheres
   LVEL    =     F    velocity operator in full k-point grid
   LINTERFAST=   F  fast interpolation
   KINTER  =     0    interpolate to denser k-point grid
   CSHIFT  =0.1000    complex shift for real part using Kramers Kronig
   OMEGAMAX=  -1.0    maximum frequency
   DEG_THRESHOLD= 0.2000000E-02 threshold for treating states as degnerate
   RTIME   =    0.100 relaxation time in fs

 Orbital magnetization related:
   ORBITALMAG=     F  switch on orbital magnetization
   LCHIMAG   =     F  perturbation theory with respect to B field
   DQ        =  0.001000  dq finite difference perturbation B field



--------------------------------------------------------------------------------------------------------


 conjugate gradient relaxation of ions
   using selective dynamics as specified on POSCAR
 charge density and potential will be updated during run
 spin polarized calculation
 RMM-DIIS sequential band-by-band and
  variant of blocked Davidson during initial phase
 perform sub-space diagonalisation
    before iterative eigenvector-optimisation
 modified Broyden-mixing scheme, WC =      100.0
 initial mixing is a Kerker type mixing with AMIX =  0.4000 and BMIX =      1.0000
 Hartree-type preconditioning will be used
 using additional bands           52
 real space projection scheme for non local part
 use partial core corrections
 calculate Harris-corrections to forces 
   (improved forces if not selfconsistent)
 use gradient corrections 
 use of overlap-Matrix (Vanderbilt PP)
 Gauss-broadening in eV      SIGMA  =   0.05


--------------------------------------------------------------------------------------------------------


  energy-cutoff  :      500.00
  volume of cell :     1120.49
      direct lattice vectors                 reciprocal lattice vectors
     0.000000000  0.000000000  6.861226510     0.000000000  0.000000000  0.145746537
     4.967737390 -4.967737390  0.000000000     0.100649443 -0.100649443  0.000000000
    16.436842470 16.436842470  0.000000000     0.030419468  0.030419468  0.000000000

  length of vectors
     6.861226510  7.025441591 23.245205544     0.145746537  0.142339807  0.043019624


 
 k-points in units of 2pi/SCALE and weight: mesh auto                               
   0.00000000  0.00000000  0.00000000       0.111
   0.00000000  0.00000000  0.04858218       0.222
   0.03354981 -0.03354981  0.00000000       0.222
   0.03354981 -0.03354981  0.04858218       0.222
   0.03354981 -0.03354981 -0.04858218       0.222
 
 k-points in reciprocal lattice and weights: mesh auto                               
   0.00000000  0.00000000  0.00000000       0.111
   0.33333333  0.00000000  0.00000000       0.222
   0.00000000  0.33333333  0.00000000       0.222
   0.33333333  0.33333333  0.00000000       0.222
  -0.33333333  0.33333333  0.00000000       0.222
 
 position of ions in fractional coordinates (direct lattice) 
   0.36591488  0.05480146  0.00000000
   0.86591488  0.05480146  0.00000000
   0.11591488  0.36214146  0.05822799
   0.61591488  0.36214146  0.05822799
   0.11591488  0.74746146  0.05822799
   0.61591488  0.74746146  0.05822799
   0.36591488  0.05480146  0.11645598
   0.86591488  0.05480146  0.11645598
   0.36591488  0.55480146  0.15111593
   0.86591488  0.55480146  0.15111593
   0.11591488  0.24746146  0.20934392
   0.61591488  0.24746146  0.20934392
   0.11591488  0.86214146  0.20934392
   0.61591488  0.86214146  0.20934392
   0.36591488  0.55480146  0.26757191
   0.86591488  0.55480146  0.26757191
   0.36591488  0.05480146  0.30223186
   0.86591488  0.05480146  0.30223186
   0.11591488  0.36214146  0.36045984
   0.61591488  0.36214146  0.36045984
   0.11591488  0.74746146  0.36045984
   0.61591488  0.74746146  0.36045984
   0.36591488  0.05480146  0.41868783
   0.86591488  0.05480146  0.41868783
   0.36591488  0.55480146  0.45334778
   0.86591488  0.55480146  0.45334778
   0.11591488  0.24746146  0.51157577
   0.61591488  0.24746146  0.51157577
   0.11591488  0.86214146  0.51157577
   0.61591488  0.86214146  0.51157577
   0.36591488  0.55480146  0.56980376
   0.86591488  0.55480146  0.56980376
   0.11591488  0.05480146  0.05822799
   0.61591488  0.05480146  0.05822799
   0.36591488  0.55480146  0.05822799
   0.86591488  0.55480146  0.05822799
   0.36591488  0.05480146  0.20934392
   0.86591488  0.05480146  0.20934392
   0.11591488  0.55480146  0.20934392
   0.61591488  0.55480146  0.20934392
   0.11591488  0.05480146  0.36045984
   0.61591488  0.05480146  0.36045984
   0.36591488  0.55480146  0.36045984
   0.86591488  0.55480146  0.36045984
   0.36591488  0.05480146  0.51157577
   0.86591488  0.05480146  0.51157577
   0.11591488  0.55480146  0.51157577
   0.61591488  0.55480146  0.51157577
 
 position of ions in cartesian coordinates  (Angst):
   0.27223928 -0.27223928  2.51062488
   0.27223928 -0.27223928  5.94123814
   2.75610798 -0.84193941  0.79531826
   2.75610798 -0.84193941  4.22593151
   4.67027655 -2.75610798  0.79531826
   4.67027655 -2.75610798  4.22593151
   2.18640785  1.64192929  2.51062488
   2.18640785  1.64192929  5.94123814
   5.23997667 -0.27223928  2.51062488
   5.23997667 -0.27223928  5.94123814
   4.67027655  2.21162941  0.79531826
   4.67027655  2.21162941  4.22593151
   7.72384537 -0.84193941  0.79531826
   7.72384537 -0.84193941  4.22593151
   7.15414524  1.64192929  2.51062488
   7.15414524  1.64192929  5.94123814
   5.23997667  4.69549811  2.51062488
   5.23997667  4.69549811  5.94123814
   7.72384537  4.12579798  0.79531826
   7.72384537  4.12579798  4.22593151
   9.63801394  2.21162941  0.79531826
   9.63801394  2.21162941  4.22593151
   7.15414524  6.60966668  2.51062488
   7.15414524  6.60966668  5.94123814
  10.20771406  4.69549811  2.51062488
  10.20771406  4.69549811  5.94123814
   9.63801394  7.17936680  0.79531826
   9.63801394  7.17936680  4.22593151
  12.69158276  4.12579799  0.79531826
  12.69158276  4.12579799  4.22593151
  12.12188263  6.60966668  2.51062488
  12.12188263  6.60966668  5.94123814
   1.22932357  0.68484500  0.79531826
   1.22932357  0.68484500  4.22593151
   3.71319226 -1.79902369  2.51062488
   3.71319226 -1.79902369  5.94123814
   3.71319226  3.16871370  2.51062488
   3.71319226  3.16871370  5.94123814
   6.19706096  0.68484500  0.79531826
   6.19706096  0.68484500  4.22593151
   6.19706096  5.65258239  0.79531826
   6.19706096  5.65258239  4.22593151
   8.68092965  3.16871370  2.51062488
   8.68092965  3.16871370  5.94123814
   8.68092965  8.13645109  2.51062488
   8.68092965  8.13645109  5.94123814
  11.16479835  5.65258239  0.79531826
  11.16479835  5.65258239  4.22593151
 


--------------------------------------------------------------------------------------------------------


 k-point  1 :   0.0000 0.0000 0.0000  plane waves:   28433
 k-point  2 :   0.3333 0.0000 0.0000  plane waves:   28461
 k-point  3 :   0.0000 0.3333 0.0000  plane waves:   28520
 k-point  4 :   0.3333 0.3333 0.0000  plane waves:   28456
 k-point  5 :  -0.3333 0.3333 0.0000  plane waves:   28456

 maximum and minimum number of plane-waves per node :      4775     4720

 maximum number of plane-waves:     28520
 maximum index in each direction: 
   IXMAX=   12   IYMAX=   12   IZMAX=   42
   IXMIN=  -12   IYMIN=  -13   IZMIN=  -42

 NGX is ok and might be reduce to  50
 NGY is ok and might be reduce to  52
 NGZ is ok and might be reduce to 170

 real space projection operators:
  total allocation   :      17762.44 KBytes
  max/ min on nodes  :       3169.95       2827.77


 parallel 3D FFT for wavefunctions:
    minimum data exchange during FFTs selected (reduces bandwidth)
 parallel 3D FFT for charge:
    minimum data exchange during FFTs selected (reduces bandwidth)


 total amount of memory used by VASP on root node   107222. kBytes
========================================================================

   base      :      30000. kBytes
   nonlr-proj:      10718. kBytes
   fftplans  :       8892. kBytes
   grid      :      22635. kBytes
   one-center:        129. kBytes
   wavefun   :      34848. kBytes
 
     INWAV:  cpu time    0.0000: real time    0.0001
 Broyden mixing: mesh for mixing (old mesh)
   NGX = 25   NGY = 25   NGZ = 85
  (NGX  =100   NGY  =108   NGZ  =360)
  gives a total of  53125 points

 initial charge density was supplied:
 charge density of overlapping atoms calculated
 number of electron     256.0000000 magnetization      48.0000000
 keeping initial charge density in first step


--------------------------------------------------------------------------------------------------------


 Maximum index for non-local projection operator         1596
 Maximum index for augmentation-charges         3294 (set IRDMAX)


--------------------------------------------------------------------------------------------------------


 First call to EWALD:  gamma=   0.171
 Maximum number of real-space cells 4x 4x 1
 Maximum number of reciprocal cells 2x 2x 6

 FEWALD executed in parallel
    FEWALD:  cpu time    0.0030: real time    0.0028


----------------------------------------- Iteration    1(   1)  ---------------------------------------


    POTLOK:  cpu time    0.4149: real time    0.4152
    SETDIJ:  cpu time    0.0390: real time    0.0382
     EDDAV:  cpu time   13.8619: real time   13.8654
       DOS:  cpu time    0.0010: real time    0.0013
    --------------------------------------------
      LOOP:  cpu time   14.3228: real time   14.3292

 eigenvalue-minimisations  :  3600
 total energy-change (2. order) : 0.2179402E+04  (-0.1094342E+05)
 number of electron     256.0000000 magnetization      48.0000000
 augmentation part      256.0000000 magnetization      48.0000000

 Free energy of the ion-electron system (eV)
  ---------------------------------------------------
  alpha Z        PSCENC =       252.65462290
  Ewald energy   TEWEN  =     27183.02885595
  -Hartree energ DENC   =    -41530.12858669
  -exchange      EXHF   =         0.00000000
  -V(xc)+E(xc)   XCENC  =     -1178.14809268
  PAW double counting   =     14281.24723002   -12195.47087739
  entropy T*S    EENTRO =        -0.01413417
  eigenvalues    EBANDS =       -20.96131322
  atomic energy  EATOM  =     15387.19415778
  Solvation  Ediel_sol  =         0.00000000
  ---------------------------------------------------
  free energy    TOTEN  =      2179.40186251 eV

  energy without entropy =     2179.41599667  energy(sigma->0) =     2179.40892959


--------------------------------------------------------------------------------------------------------




----------------------------------------- Iteration    1(   2)  ---------------------------------------


     EDDAV:  cpu time   17.4463: real time   17.4495
       DOS:  cpu time    0.0010: real time    0.0012
    --------------------------------------------
      LOOP:  cpu time   17.4483: real time   17.4544

 eigenvalue-minimisations  :  4832
 total energy-change (2. order) :-0.2151706E+04  (-0.2041695E+04)
 number of electron     256.0000000 magnetization      48.0000000
 augmentation part      256.0000000 magnetization      48.0000000

 Free energy of the ion-electron system (eV)
  ---------------------------------------------------
  alpha Z        PSCENC =       252.65462290
  Ewald energy   TEWEN  =     27183.02885595
  -Hartree energ DENC   =    -41530.12858669
  -exchange      EXHF   =         0.00000000
  -V(xc)+E(xc)   XCENC  =     -1178.14809268
  PAW double counting   =     14281.24723002   -12195.47087739
  entropy T*S    EENTRO =        -0.00132540
  eigenvalues    EBANDS =     -2172.67985064
  atomic energy  EATOM  =     15387.19415778
  Solvation  Ediel_sol  =         0.00000000
  ---------------------------------------------------
  free energy    TOTEN  =        27.69613385 eV

  energy without entropy =       27.69745925  energy(sigma->0) =       27.69679655


--------------------------------------------------------------------------------------------------------




----------------------------------------- Iteration    1(   3)  ---------------------------------------


     EDDAV:  cpu time   15.8356: real time   15.8406
       DOS:  cpu time    0.0010: real time    0.0014
    --------------------------------------------
      LOOP:  cpu time   15.8376: real time   15.8456

 eigenvalue-minimisations  :  4272
 total energy-change (2. order) :-0.3073824E+03  (-0.3017443E+03)
 number of electron     256.0000000 magnetization      48.0000000
 augmentation part      256.0000000 magnetization      48.0000000

 Free energy of the ion-electron system (eV)
  ---------------------------------------------------
  alpha Z        PSCENC =       252.65462290
  Ewald energy   TEWEN  =     27183.02885595
  -Hartree energ DENC   =    -41530.12858669
  -exchange      EXHF   =         0.00000000
  -V(xc)+E(xc)   XCENC  =     -1178.14809268
  PAW double counting   =     14281.24723002   -12195.47087739
  entropy T*S    EENTRO =        -0.00675475
  eigenvalues    EBANDS =     -2480.05680212
  atomic energy  EATOM  =     15387.19415778
  Solvation  Ediel_sol  =         0.00000000
  ---------------------------------------------------
  free energy    TOTEN  =      -279.68624697 eV

  energy without entropy =     -279.67949222  energy(sigma->0) =     -279.68286960


--------------------------------------------------------------------------------------------------------




----------------------------------------- Iteration    1(   4)  ---------------------------------------


     EDDAV:  cpu time   15.8246: real time   15.8285
       DOS:  cpu time    0.0020: real time    0.0013
    --------------------------------------------
      LOOP:  cpu time   15.8266: real time   15.8322

 eigenvalue-minimisations  :  4280
 total energy-change (2. order) :-0.7288076E+01  (-0.7243774E+01)
 number of electron     256.0000000 magnetization      48.0000000
 augmentation part      256.0000000 magnetization      48.0000000

 Free energy of the ion-electron system (eV)
  ---------------------------------------------------
  alpha Z        PSCENC =       252.65462290
  Ewald energy   TEWEN  =     27183.02885595
  -Hartree energ DENC   =    -41530.12858669
  -exchange      EXHF   =         0.00000000
  -V(xc)+E(xc)   XCENC  =     -1178.14809268
  PAW double counting   =     14281.24723002   -12195.47087739
  entropy T*S    EENTRO =        -0.00716893
  eigenvalues    EBANDS =     -2487.34446429
  atomic energy  EATOM  =     15387.19415778
  Solvation  Ediel_sol  =         0.00000000
  ---------------------------------------------------
  free energy    TOTEN  =      -286.97432332 eV

  energy without entropy =     -286.96715439  energy(sigma->0) =     -286.97073886


--------------------------------------------------------------------------------------------------------




----------------------------------------- Iteration    1(   5)  ---------------------------------------


     EDDAV:  cpu time   17.0584: real time   17.0622
       DOS:  cpu time    0.0010: real time    0.0015
    CHARGE:  cpu time    0.5869: real time    0.5863
    MIXING:  cpu time    0.0060: real time    0.0069
    --------------------------------------------
      LOOP:  cpu time   17.6523: real time   17.6598

 eigenvalue-minimisations  :  4704
 total energy-change (2. order) :-0.2189485E+00  (-0.2186803E+00)
 number of electron     256.0000042 magnetization      42.7950810
 augmentation part       14.2896910 magnetization      43.9032696

 Broyden mixing:
  rms(total) = 0.10772E+02    rms(broyden)= 0.10771E+02
  rms(prec ) = 0.10901E+02
  weight for this iteration     100.00

 Free energy of the ion-electron system (eV)
  ---------------------------------------------------
  alpha Z        PSCENC =       252.65462290
  Ewald energy   TEWEN  =     27183.02885595
  -Hartree energ DENC   =    -41530.12858669
  -exchange      EXHF   =         0.00000000
  -V(xc)+E(xc)   XCENC  =     -1178.14809268
  PAW double counting   =     14281.24723002   -12195.47087739
  entropy T*S    EENTRO =        -0.00717666
  eigenvalues    EBANDS =     -2487.56340507
  atomic energy  EATOM  =     15387.19415778
  Solvation  Ediel_sol  =         0.00000000
  ---------------------------------------------------
  free energy    TOTEN  =      -287.19327183 eV

  energy without entropy =     -287.18609517  energy(sigma->0) =     -287.18968350


--------------------------------------------------------------------------------------------------------




----------------------------------------- Iteration    1(   6)  ---------------------------------------


    POTLOK:  cpu time    0.4119: real time    0.4115
    SETDIJ:  cpu time    0.0360: real time    0.0356
    EDDIAG:  cpu time    2.5976: real time    2.5980
  RMM-DIIS:  cpu time    8.9206: real time    8.9230
    ORTHCH:  cpu time    0.4039: real time    0.4042
       DOS:  cpu time    0.0020: real time    0.0015
    CHARGE:  cpu time    0.5939: real time    0.5945
    MIXING:  cpu time    0.0070: real time    0.0068
    --------------------------------------------
      LOOP:  cpu time   12.9740: real time   12.9785

 eigenvalue-minimisations  :  3600
 total energy-change (2. order) : 0.1316184E+03  (-0.2953691E+02)
 number of electron     256.0000033 magnetization      37.3176375
 augmentation part        5.0086086 magnetization      31.1251286

 Broyden mixing:
  rms(total) = 0.52005E+01    rms(broyden)= 0.51989E+01
  rms(prec ) = 0.52479E+01
  weight for this iteration     100.00

 eigenvalues of (default mixing * dielectric matrix)
  average eigenvalue GAMMA=   1.1707
  1.1707

 Free energy of the ion-electron system (eV)
  ---------------------------------------------------
  alpha Z        PSCENC =       252.65462290
  Ewald energy   TEWEN  =     27183.02885595
  -Hartree energ DENC   =    -42119.48723121
  -exchange      EXHF   =         0.00000000
  -V(xc)+E(xc)   XCENC  =     -1087.10001326
  PAW double counting   =     19223.68465873   -17152.53134921
  entropy T*S    EENTRO =        -0.01484849
  eigenvalues    EBANDS =     -1843.00368459
  atomic energy  EATOM  =     15387.19415778
  Solvation  Ediel_sol  =         0.00000000
  ---------------------------------------------------
  free energy    TOTEN  =      -155.57483139 eV

  energy without entropy =     -155.55998290  energy(sigma->0) =     -155.56740715


--------------------------------------------------------------------------------------------------------




----------------------------------------- Iteration    1(   7)  ---------------------------------------


    POTLOK:  cpu time    0.4079: real time    0.4084
    SETDIJ:  cpu time    0.0360: real time    0.0357
    EDDIAG:  cpu time    2.5966: real time    2.5972
  RMM-DIIS:  cpu time    8.9316: real time    8.9344
    ORTHCH:  cpu time    0.4029: real time    0.4033
       DOS:  cpu time    0.0020: real time    0.0015
    CHARGE:  cpu time    0.5949: real time    0.5956
    MIXING:  cpu time    0.0070: real time    0.0071
    --------------------------------------------
      LOOP:  cpu time   12.9790: real time   12.9865

 eigenvalue-minimisations  :  3608
 total energy-change (2. order) :-0.1697012E+02  (-0.6697936E+01)
 number of electron     256.0000036 magnetization      34.3956966
 augmentation part        3.7053365 magnetization      29.2282074

 Broyden mixing:
  rms(total) = 0.32837E+01    rms(broyden)= 0.32822E+01
  rms(prec ) = 0.34660E+01
  weight for this iteration     100.00

 eigenvalues of (default mixing * dielectric matrix)
  average eigenvalue GAMMA=   0.9890
  1.4030  0.5749

 Free energy of the ion-electron system (eV)
  ---------------------------------------------------
  alpha Z        PSCENC =       252.65462290
  Ewald energy   TEWEN  =     27183.02885595
  -Hartree energ DENC   =    -42325.01074472
  -exchange      EXHF   =         0.00000000
  -V(xc)+E(xc)   XCENC  =     -1088.10029451
  PAW double counting   =     23667.49806752   -21598.12454453
  entropy T*S    EENTRO =        -0.03476884
  eigenvalues    EBANDS =     -1651.65030171
  atomic energy  EATOM  =     15387.19415778
  Solvation  Ediel_sol  =         0.00000000
  ---------------------------------------------------
  free energy    TOTEN  =      -172.54495016 eV

  energy without entropy =     -172.51018132  energy(sigma->0) =     -172.52756574


--------------------------------------------------------------------------------------------------------




----------------------------------------- Iteration    1(   8)  ---------------------------------------


    POTLOK:  cpu time    0.4089: real time    0.4093
    SETDIJ:  cpu time    0.0350: real time    0.0356
    EDDIAG:  cpu time    2.5946: real time    2.5951
  RMM-DIIS:  cpu time    8.9356: real time    8.9366
    ORTHCH:  cpu time    0.4039: real time    0.4038
       DOS:  cpu time    0.0010: real time    0.0015
    CHARGE:  cpu time    0.5849: real time    0.5852
    MIXING:  cpu time    0.0070: real time    0.0073
    --------------------------------------------
      LOOP:  cpu time   12.9740: real time   12.9777

 eigenvalue-minimisations  :  3600
 total energy-change (2. order) : 0.4405515E+01  (-0.2004412E+01)
 number of electron     256.0000034 magnetization      30.4376603
 augmentation part        4.4640013 magnetization      27.8020330

 Broyden mixing:
  rms(total) = 0.15762E+01    rms(broyden)= 0.15753E+01
  rms(prec ) = 0.15937E+01
  weight for this iteration     100.00

 eigenvalues of (default mixing * dielectric matrix)
  average eigenvalue GAMMA=   1.0255
  1.6639  0.7063  0.7063

 Free energy of the ion-electron system (eV)
  ---------------------------------------------------
  alpha Z        PSCENC =       252.65462290
  Ewald energy   TEWEN  =     27183.02885595
  -Hartree energ DENC   =    -42217.90058657
  -exchange      EXHF   =         0.00000000
  -V(xc)+E(xc)   XCENC  =     -1091.71043473
  PAW double counting   =     24812.22843680   -22743.40669728
  entropy T*S    EENTRO =        -0.02006178
  eigenvalues    EBANDS =     -1750.20772773
  atomic energy  EATOM  =     15387.19415778
  Solvation  Ediel_sol  =         0.00000000
  ---------------------------------------------------
  free energy    TOTEN  =      -168.13943467 eV

  energy without entropy =     -168.11937289  energy(sigma->0) =     -168.12940378


--------------------------------------------------------------------------------------------------------




----------------------------------------- Iteration    1(   9)  ---------------------------------------


    POTLOK:  cpu time    0.4089: real time    0.4087
    SETDIJ:  cpu time    0.0360: real time    0.0356
    EDDIAG:  cpu time    2.5946: real time    2.5965
  RMM-DIIS:  cpu time    9.0136: real time    9.0153
    ORTHCH:  cpu time    0.4029: real time    0.4036
       DOS:  cpu time    0.0020: real time    0.0016
    CHARGE:  cpu time    0.5899: real time    0.5902
    MIXING:  cpu time    0.0070: real time    0.0074
    --------------------------------------------
      LOOP:  cpu time   13.0570: real time   13.0634

 eigenvalue-minimisations  :  3640
 total energy-change (2. order) : 0.1621044E+01  (-0.3896577E+00)
 number of electron     256.0000034 magnetization      27.4105615
 augmentation part        4.4110464 magnetization      24.4167188

 Broyden mixing:
  rms(total) = 0.12686E+01    rms(broyden)= 0.12679E+01
  rms(prec ) = 0.12911E+01
  weight for this iteration     100.00

 eigenvalues of (default mixing * dielectric matrix)
  average eigenvalue GAMMA=   0.9791
  1.7818  0.9525  0.5911  0.5911

 Free energy of the ion-electron system (eV)
  ---------------------------------------------------
  alpha Z        PSCENC =       252.65462290
  Ewald energy   TEWEN  =     27183.02885595
  -Hartree energ DENC   =    -42238.17519952
  -exchange      EXHF   =         0.00000000
  -V(xc)+E(xc)   XCENC  =     -1089.87949828
  PAW double counting   =     25598.78711264   -23530.53280766
  entropy T*S    EENTRO =        -0.02208465
  eigenvalues    EBANDS =     -1729.57354933
  atomic energy  EATOM  =     15387.19415778
  Solvation  Ediel_sol  =         0.00000000
  ---------------------------------------------------
  free energy    TOTEN  =      -166.51839017 eV

  energy without entropy =     -166.49630552  energy(sigma->0) =     -166.50734785


--------------------------------------------------------------------------------------------------------




----------------------------------------- Iteration    1(  10)  ---------------------------------------


    POTLOK:  cpu time    0.4089: real time    0.4083
    SETDIJ:  cpu time    0.0350: real time    0.0356
    EDDIAG:  cpu time    2.5986: real time    2.5986
  RMM-DIIS:  cpu time    8.9336: real time    8.9361
    ORTHCH:  cpu time    0.4029: real time    0.4031
       DOS:  cpu time    0.0020: real time    0.0016
    CHARGE:  cpu time    0.5889: real time    0.5894
    MIXING:  cpu time    0.0080: real time    0.0076
    --------------------------------------------
      LOOP:  cpu time   12.9790: real time   12.9835

 eigenvalue-minimisations  :  3602
 total energy-change (2. order) :-0.1350183E+02  (-0.2977570E+00)
 number of electron     256.0000034 magnetization      25.7692812
 augmentation part        4.1736366 magnetization      22.1134447

 Broyden mixing:
  rms(total) = 0.16693E+01    rms(broyden)= 0.16675E+01
  rms(prec ) = 0.18120E+01
  weight for this iteration     100.00

 eigenvalues of (default mixing * dielectric matrix)
  average eigenvalue GAMMA=   0.8789
  1.8593  1.1060  0.5837  0.5837  0.2619

 Free energy of the ion-electron system (eV)
  ---------------------------------------------------
  alpha Z        PSCENC =       252.65462290
  Ewald energy   TEWEN  =     27183.02885595
  -Hartree energ DENC   =    -42249.30426134
  -exchange      EXHF   =         0.00000000
  -V(xc)+E(xc)   XCENC  =     -1097.37175956
  PAW double counting   =     25899.45060202   -23831.53521270
  entropy T*S    EENTRO =        -0.01656380
  eigenvalues    EBANDS =     -1724.12065828
  atomic energy  EATOM  =     15387.19415778
  Solvation  Ediel_sol  =         0.00000000
  ---------------------------------------------------
  free energy    TOTEN  =      -180.02021704 eV

  energy without entropy =     -180.00365324  energy(sigma->0) =     -180.01193514


--------------------------------------------------------------------------------------------------------




----------------------------------------- Iteration    1(  11)  ---------------------------------------


    POTLOK:  cpu time    0.4079: real time    0.4083
    SETDIJ:  cpu time    0.0360: real time    0.0356
    EDDIAG:  cpu time    2.5946: real time    2.5947
  RMM-DIIS:  cpu time    8.9306: real time    8.9332
    ORTHCH:  cpu time    0.4039: real time    0.4038
       DOS:  cpu time    0.0010: real time    0.0015
    CHARGE:  cpu time    0.5809: real time    0.5812
    MIXING:  cpu time    0.0070: real time    0.0078
    --------------------------------------------
      LOOP:  cpu time   12.9620: real time   12.9694

 eigenvalue-minimisations  :  3600
 total energy-change (2. order) :-0.7026359E+01  (-0.2111414E+00)
 number of electron     256.0000034 magnetization      23.1154209
 augmentation part        4.4776435 magnetization      20.6960334

 Broyden mixing:
  rms(total) = 0.11560E+01    rms(broyden)= 0.11537E+01
  rms(prec ) = 0.11904E+01
  weight for this iteration     100.00

 eigenvalues of (default mixing * dielectric matrix)
  average eigenvalue GAMMA=   0.8262
  1.9296  1.2151  0.5991  0.5991  0.4200  0.1942

 Free energy of the ion-electron system (eV)
  ---------------------------------------------------
  alpha Z        PSCENC =       252.65462290
  Ewald energy   TEWEN  =     27183.02885595
  -Hartree energ DENC   =    -42254.08760887
  -exchange      EXHF   =         0.00000000
  -V(xc)+E(xc)   XCENC  =     -1101.96822482
  PAW double counting   =     26029.39980517   -23961.60101750
  entropy T*S    EENTRO =        -0.01250867
  eigenvalues    EBANDS =     -1721.65465830
  atomic energy  EATOM  =     15387.19415778
  Solvation  Ediel_sol  =         0.00000000
  ---------------------------------------------------
  free energy    TOTEN  =      -187.04657636 eV

  energy without entropy =     -187.03406769  energy(sigma->0) =     -187.04032203


--------------------------------------------------------------------------------------------------------




----------------------------------------- Iteration    1(  12)  ---------------------------------------


    POTLOK:  cpu time    0.4089: real time    0.4085
    SETDIJ:  cpu time    0.0350: real time    0.0356
    EDDIAG:  cpu time    2.5946: real time    2.5946
  RMM-DIIS:  cpu time    8.9186: real time    8.9206
    ORTHCH:  cpu time    0.4029: real time    0.4036
       DOS:  cpu time    0.0010: real time    0.0014
    CHARGE:  cpu time    0.5859: real time    0.5859
    MIXING:  cpu time    0.0080: real time    0.0080
    --------------------------------------------
      LOOP:  cpu time   12.9570: real time   12.9616

 eigenvalue-minimisations  :  3600
 total energy-change (2. order) :-0.1108961E+02  (-0.3065260E+00)
 number of electron     256.0000034 magnetization      17.5956311
 augmentation part        4.3742816 magnetization      15.0682164

 Broyden mixing:
  rms(total) = 0.12293E+01    rms(broyden)= 0.12276E+01
  rms(prec ) = 0.12867E+01
  weight for this iteration     100.00

 eigenvalues of (default mixing * dielectric matrix)
  average eigenvalue GAMMA=   0.8778
  2.2613  1.4856  0.6986  0.6986  0.5676  0.2166  0.2166

 Free energy of the ion-electron system (eV)
  ---------------------------------------------------
  alpha Z        PSCENC =       252.65462290
  Ewald energy   TEWEN  =     27183.02885595
  -Hartree energ DENC   =    -42259.87263331
  -exchange      EXHF   =         0.00000000
  -V(xc)+E(xc)   XCENC  =     -1108.14142676
  PAW double counting   =     26151.84461941   -24084.21460106
  entropy T*S    EENTRO =        -0.00876724
  eigenvalues    EBANDS =     -1720.62101888
  atomic energy  EATOM  =     15387.19415778
  Solvation  Ediel_sol  =         0.00000000
  ---------------------------------------------------
  free energy    TOTEN  =      -198.13619120 eV

  energy without entropy =     -198.12742397  energy(sigma->0) =     -198.13180759


--------------------------------------------------------------------------------------------------------




----------------------------------------- Iteration    1(  13)  ---------------------------------------


    POTLOK:  cpu time    0.4099: real time    0.4091
    SETDIJ:  cpu time    0.0350: real time    0.0355
    EDDIAG:  cpu time    2.5936: real time    2.5941
  RMM-DIIS:  cpu time    8.9146: real time    8.9171
    ORTHCH:  cpu time    0.4039: real time    0.4032
       DOS:  cpu time    0.0010: real time    0.0016
    CHARGE:  cpu time    0.5799: real time    0.5807
    MIXING:  cpu time    0.0080: real time    0.0083
    --------------------------------------------
      LOOP:  cpu time   12.9460: real time   12.9533

 eigenvalue-minimisations  :  3600
 total energy-change (2. order) :-0.2025853E+02  (-0.1066956E+01)
 number of electron     256.0000034 magnetization      14.0480484
 augmentation part        4.4467527 magnetization      12.5156801

 Broyden mixing:
  rms(total) = 0.79936E+00    rms(broyden)= 0.79789E+00
  rms(prec ) = 0.81683E+00
  weight for this iteration     100.00

 eigenvalues of (default mixing * dielectric matrix)
  average eigenvalue GAMMA=   0.8618
  2.4019  1.5353  0.6861  0.6861  0.5860  0.5860  0.2064  0.2064

 Free energy of the ion-electron system (eV)
  ---------------------------------------------------
  alpha Z        PSCENC =       252.65462290
  Ewald energy   TEWEN  =     27183.02885595
  -Hartree energ DENC   =    -42267.93050489
  -exchange      EXHF   =         0.00000000
  -V(xc)+E(xc)   XCENC  =     -1119.43800580
  PAW double counting   =     26355.14770726   -24287.74538402
  entropy T*S    EENTRO =        -0.01265759
  eigenvalues    EBANDS =     -1721.29351017
  atomic energy  EATOM  =     15387.19415778
  Solvation  Ediel_sol  =         0.00000000
  ---------------------------------------------------
  free energy    TOTEN  =      -218.39471858 eV

  energy without entropy =     -218.38206099  energy(sigma->0) =     -218.38838979


--------------------------------------------------------------------------------------------------------




----------------------------------------- Iteration    1(  14)  ---------------------------------------


    POTLOK:  cpu time    0.4089: real time    0.4089
    SETDIJ:  cpu time    0.0360: real time    0.0356
    EDDIAG:  cpu time    2.5926: real time    2.5944
  RMM-DIIS:  cpu time    8.9036: real time    8.9060
    ORTHCH:  cpu time    0.4019: real time    0.4027
       DOS:  cpu time    0.0020: real time    0.0017
    CHARGE:  cpu time    0.5819: real time    0.5819
    MIXING:  cpu time    0.0090: real time    0.0085
    --------------------------------------------
      LOOP:  cpu time   12.9390: real time   12.9433

 eigenvalue-minimisations  :  3600
 total energy-change (2. order) :-0.1238702E+02  (-0.7934830E+00)
 number of electron     256.0000034 magnetization      10.1136023
 augmentation part        4.3161619 magnetization       8.8069680

 Broyden mixing:
  rms(total) = 0.73690E+00    rms(broyden)= 0.73633E+00
  rms(prec ) = 0.76617E+00
  weight for this iteration     100.00

 eigenvalues of (default mixing * dielectric matrix)
  average eigenvalue GAMMA=   0.9543
  3.2023  1.6866  0.8114  0.8114  0.6355  0.6355  0.3861  0.2101  0.2101

 Free energy of the ion-electron system (eV)
  ---------------------------------------------------
  alpha Z        PSCENC =       252.65462290
  Ewald energy   TEWEN  =     27183.02885595
  -Hartree energ DENC   =    -42261.13384320
  -exchange      EXHF   =         0.00000000
  -V(xc)+E(xc)   XCENC  =     -1125.75337851
  PAW double counting   =     26347.14963717   -24279.72605700
  entropy T*S    EENTRO =        -0.01502343
  eigenvalues    EBANDS =     -1734.18070582
  atomic energy  EATOM  =     15387.19415778
  Solvation  Ediel_sol  =         0.00000000
  ---------------------------------------------------
  free energy    TOTEN  =      -230.78173417 eV

  energy without entropy =     -230.76671073  energy(sigma->0) =     -230.77422245


--------------------------------------------------------------------------------------------------------




----------------------------------------- Iteration    1(  15)  ---------------------------------------


    POTLOK:  cpu time    0.4089: real time    0.4082
    SETDIJ:  cpu time    0.0350: real time    0.0356
    EDDIAG:  cpu time    2.5936: real time    2.5938
  RMM-DIIS:  cpu time    8.9066: real time    8.9077
    ORTHCH:  cpu time    0.4039: real time    0.4037
       DOS:  cpu time    0.0010: real time    0.0015
    CHARGE:  cpu time    0.5829: real time    0.5824
    MIXING:  cpu time    0.0090: real time    0.0089
    --------------------------------------------
      LOOP:  cpu time   12.9410: real time   12.9450

 eigenvalue-minimisations  :  3600
 total energy-change (2. order) :-0.1061568E+02  (-0.9352180E+00)
 number of electron     256.0000033 magnetization       5.9336626
 augmentation part        4.3128174 magnetization       4.6675602

 Broyden mixing:
  rms(total) = 0.72219E+00    rms(broyden)= 0.72053E+00
  rms(prec ) = 0.77255E+00
  weight for this iteration     100.00

 eigenvalues of (default mixing * dielectric matrix)
  average eigenvalue GAMMA=   1.0792
  4.1732  1.7841  1.1753  1.1753  0.6449  0.6449  0.5573  0.2096  0.2096  0.2179

 Free energy of the ion-electron system (eV)
  ---------------------------------------------------
  alpha Z        PSCENC =       252.65462290
  Ewald energy   TEWEN  =     27183.02885595
  -Hartree energ DENC   =    -42252.34952340
  -exchange      EXHF   =         0.00000000
  -V(xc)+E(xc)   XCENC  =     -1131.44426855
  PAW double counting   =     26343.81627055   -24276.26723266
  entropy T*S    EENTRO =        -0.00969041
  eigenvalues    EBANDS =     -1748.02060241
  atomic energy  EATOM  =     15387.19415778
  Solvation  Ediel_sol  =         0.00000000
  ---------------------------------------------------
  free energy    TOTEN  =      -241.39741026 eV

  energy without entropy =     -241.38771985  energy(sigma->0) =     -241.39256505


--------------------------------------------------------------------------------------------------------




----------------------------------------- Iteration    1(  16)  ---------------------------------------


    POTLOK:  cpu time    0.4079: real time    0.4085
    SETDIJ:  cpu time    0.0360: real time    0.0356
    EDDIAG:  cpu time    2.5876: real time    2.5896
  RMM-DIIS:  cpu time    8.9086: real time    8.9119
    ORTHCH:  cpu time    0.4039: real time    0.4036
       DOS:  cpu time    0.0020: real time    0.0016
    CHARGE:  cpu time    0.5829: real time    0.5842
    MIXING:  cpu time    0.0090: real time    0.0090
    --------------------------------------------
      LOOP:  cpu time   12.9410: real time   12.9474

 eigenvalue-minimisations  :  3600
 total energy-change (2. order) :-0.7872843E+01  (-0.1319387E+01)
 number of electron     256.0000033 magnetization       2.9047132
 augmentation part        4.5734208 magnetization       2.1334925

 Broyden mixing:
  rms(total) = 0.55279E+00    rms(broyden)= 0.55084E+00
  rms(prec ) = 0.59718E+00
  weight for this iteration     100.00

 eigenvalues of (default mixing * dielectric matrix)
  average eigenvalue GAMMA=   1.2417
  5.9848  2.0075  1.5049  0.9092  0.6656  0.6656  0.7663  0.5261  0.2095  0.2095
  0.2095

 Free energy of the ion-electron system (eV)
  ---------------------------------------------------
  alpha Z        PSCENC =       252.65462290
  Ewald energy   TEWEN  =     27183.02885595
  -Hartree energ DENC   =    -42222.10255921
  -exchange      EXHF   =         0.00000000
  -V(xc)+E(xc)   XCENC  =     -1136.97419026
  PAW double counting   =     26180.02008592   -24111.82577172
  entropy T*S    EENTRO =        -0.01740242
  eigenvalues    EBANDS =     -1781.24805225
  atomic energy  EATOM  =     15387.19415778
  Solvation  Ediel_sol  =         0.00000000
  ---------------------------------------------------
  free energy    TOTEN  =      -249.27025330 eV

  energy without entropy =     -249.25285089  energy(sigma->0) =     -249.26155210


--------------------------------------------------------------------------------------------------------




----------------------------------------- Iteration    1(  17)  ---------------------------------------


    POTLOK:  cpu time    0.4089: real time    0.4087
    SETDIJ:  cpu time    0.0350: real time    0.0356
    EDDIAG:  cpu time    2.5896: real time    2.5899
  RMM-DIIS:  cpu time    8.9066: real time    8.9089
    ORTHCH:  cpu time    0.4039: real time    0.4039
       DOS:  cpu time    0.0020: real time    0.0016
    CHARGE:  cpu time    0.5829: real time    0.5835
    MIXING:  cpu time    0.0090: real time    0.0093
    --------------------------------------------
      LOOP:  cpu time   12.9380: real time   12.9445

 eigenvalue-minimisations  :  3602
 total energy-change (2. order) :-0.1218523E+01  (-0.2104853E+00)
 number of electron     256.0000033 magnetization       1.8970162
 augmentation part        4.5634732 magnetization       1.5022473

 Broyden mixing:
  rms(total) = 0.48449E+00    rms(broyden)= 0.48358E+00
  rms(prec ) = 0.53473E+00
  weight for this iteration     100.00

 eigenvalues of (default mixing * dielectric matrix)
  average eigenvalue GAMMA=   1.3205
  7.2616  2.1077  1.6084  0.9247  0.9247  0.6559  0.6559  0.5360  0.5360  0.2097
  0.2097  0.2152

 Free energy of the ion-electron system (eV)
  ---------------------------------------------------
  alpha Z        PSCENC =       252.65462290
  Ewald energy   TEWEN  =     27183.02885595
  -Hartree energ DENC   =    -42206.64717567
  -exchange      EXHF   =         0.00000000
  -V(xc)+E(xc)   XCENC  =     -1138.67476029
  PAW double counting   =     26064.15933631   -23995.66503544
  entropy T*S    EENTRO =        -0.01837938
  eigenvalues    EBANDS =     -1796.52039831
  atomic energy  EATOM  =     15387.19415778
  Solvation  Ediel_sol  =         0.00000000
  ---------------------------------------------------
  free energy    TOTEN  =      -250.48877615 eV

  energy without entropy =     -250.47039677  energy(sigma->0) =     -250.47958646


--------------------------------------------------------------------------------------------------------




----------------------------------------- Iteration    1(  18)  ---------------------------------------


    POTLOK:  cpu time    0.4069: real time    0.4086
    SETDIJ:  cpu time    0.0360: real time    0.0357
    EDDIAG:  cpu time    2.5896: real time    2.5901
  RMM-DIIS:  cpu time    8.9236: real time    8.9262
    ORTHCH:  cpu time    0.4039: real time    0.4040
       DOS:  cpu time    0.0010: real time    0.0016
    CHARGE:  cpu time    0.5829: real time    0.5825
    MIXING:  cpu time    0.0100: real time    0.0098
    --------------------------------------------
      LOOP:  cpu time   12.9560: real time   12.9621

 eigenvalue-minimisations  :  3609
 total energy-change (2. order) :-0.1786728E+00  (-0.2603947E-01)
 number of electron     256.0000033 magnetization       1.1696199
 augmentation part        4.5504940 magnetization       0.9995450

 Broyden mixing:
  rms(total) = 0.35035E+00    rms(broyden)= 0.34963E+00
  rms(prec ) = 0.37546E+00
  weight for this iteration     100.00

 eigenvalues of (default mixing * dielectric matrix)
  average eigenvalue GAMMA=   1.3377
  8.1533  2.2552  1.5403  1.0007  1.0007  0.6670  0.6670  0.5048  0.5048  0.4626
  0.2098  0.2098  0.2135

 Free energy of the ion-electron system (eV)
  ---------------------------------------------------
  alpha Z        PSCENC =       252.65462290
  Ewald energy   TEWEN  =     27183.02885595
  -Hartree energ DENC   =    -42208.41773270
  -exchange      EXHF   =         0.00000000
  -V(xc)+E(xc)   XCENC  =     -1138.75367629
  PAW double counting   =     26049.97482155   -23981.47953065
  entropy T*S    EENTRO =        -0.00847523
  eigenvalues    EBANDS =     -1794.86049228
  atomic energy  EATOM  =     15387.19415778
  Solvation  Ediel_sol  =         0.00000000
  ---------------------------------------------------
  free energy    TOTEN  =      -250.66744898 eV

  energy without entropy =     -250.65897375  energy(sigma->0) =     -250.66321136


--------------------------------------------------------------------------------------------------------




----------------------------------------- Iteration    1(  19)  ---------------------------------------


    POTLOK:  cpu time    0.4069: real time    0.4086
    SETDIJ:  cpu time    0.0360: real time    0.0357
    EDDIAG:  cpu time    2.5966: real time    2.5967
  RMM-DIIS:  cpu time    8.9016: real time    8.9056
    ORTHCH:  cpu time    0.4029: real time    0.4031
       DOS:  cpu time    0.0020: real time    0.0016
    CHARGE:  cpu time    0.5819: real time    0.5816
    MIXING:  cpu time    0.0100: real time    0.0098
    --------------------------------------------
      LOOP:  cpu time   12.9400: real time   12.9470

 eigenvalue-minimisations  :  3611
 total energy-change (2. order) :-0.5655087E-01  (-0.6779913E-02)
 number of electron     256.0000033 magnetization       0.8183132
 augmentation part        4.4947525 magnetization       0.6652322

 Broyden mixing:
  rms(total) = 0.24962E+00    rms(broyden)= 0.24955E+00
  rms(prec ) = 0.26978E+00
  weight for this iteration     100.00

 eigenvalues of (default mixing * dielectric matrix)
  average eigenvalue GAMMA=   1.3568
  8.7714  2.2682  1.2567  1.2567  1.2354  0.6963  0.6963  0.6069  0.6069  0.4832
  0.4832  0.2097  0.2097  0.2142

 Free energy of the ion-electron system (eV)
  ---------------------------------------------------
  alpha Z        PSCENC =       252.65462290
  Ewald energy   TEWEN  =     27183.02885595
  -Hartree energ DENC   =    -42204.67825763
  -exchange      EXHF   =         0.00000000
  -V(xc)+E(xc)   XCENC  =     -1138.83167519
  PAW double counting   =     26015.42867623   -23946.91438719
  entropy T*S    EENTRO =        -0.00734351
  eigenvalues    EBANDS =     -1798.59864917
  atomic energy  EATOM  =     15387.19415778
  Solvation  Ediel_sol  =         0.00000000
  ---------------------------------------------------
  free energy    TOTEN  =      -250.72399985 eV

  energy without entropy =     -250.71665633  energy(sigma->0) =     -250.72032809


--------------------------------------------------------------------------------------------------------




----------------------------------------- Iteration    1(  20)  ---------------------------------------


    POTLOK:  cpu time    0.4089: real time    0.4091
    SETDIJ:  cpu time    0.0350: real time    0.0358
    EDDIAG:  cpu time    2.5906: real time    2.5908
  RMM-DIIS:  cpu time    8.9136: real time    8.9155
    ORTHCH:  cpu time    0.4039: real time    0.4039
       DOS:  cpu time    0.0020: real time    0.0016
    CHARGE:  cpu time    0.5899: real time    0.5904
    MIXING:  cpu time    0.0100: real time    0.0102
    --------------------------------------------
      LOOP:  cpu time   12.9560: real time   12.9607

 eigenvalue-minimisations  :  3601
 total energy-change (2. order) :-0.2976742E-01  (-0.3303221E-02)
 number of electron     256.0000033 magnetization       0.5816263
 augmentation part        4.4632975 magnetization       0.4441092

 Broyden mixing:
  rms(total) = 0.15928E+00    rms(broyden)= 0.15926E+00
  rms(prec ) = 0.17357E+00
  weight for this iteration     100.00

 eigenvalues of (default mixing * dielectric matrix)
  average eigenvalue GAMMA=   1.3687
  9.0850  2.2717  1.5227  1.5227  1.0841  0.6907  0.6907  0.7461  0.7461  0.5326
  0.5326  0.4711  0.2098  0.2098  0.2141

 Free energy of the ion-electron system (eV)
  ---------------------------------------------------
  alpha Z        PSCENC =       252.65462290
  Ewald energy   TEWEN  =     27183.02885595
  -Hartree energ DENC   =    -42201.53600883
  -exchange      EXHF   =         0.00000000
  -V(xc)+E(xc)   XCENC  =     -1138.82977766
  PAW double counting   =     25991.94736047   -23923.44501432
  entropy T*S    EENTRO =        -0.00732403
  eigenvalues    EBANDS =     -1801.76063953
  atomic energy  EATOM  =     15387.19415778
  Solvation  Ediel_sol  =         0.00000000
  ---------------------------------------------------
  free energy    TOTEN  =      -250.75376727 eV

  energy without entropy =     -250.74644325  energy(sigma->0) =     -250.75010526


--------------------------------------------------------------------------------------------------------




----------------------------------------- Iteration    1(  21)  ---------------------------------------


    POTLOK:  cpu time    0.4099: real time    0.4099
    SETDIJ:  cpu time    0.0360: real time    0.0356
    EDDIAG:  cpu time    2.5886: real time    2.5899
  RMM-DIIS:  cpu time    8.9376: real time    8.9401
    ORTHCH:  cpu time    0.4039: real time    0.4035
       DOS:  cpu time    0.0010: real time    0.0015
    CHARGE:  cpu time    0.5769: real time    0.5769
    MIXING:  cpu time    0.0110: real time    0.0107
    --------------------------------------------
      LOOP:  cpu time   12.9670: real time   12.9716

 eigenvalue-minimisations  :  3603
 total energy-change (2. order) :-0.3285468E-01  (-0.2316724E-02)
 number of electron     256.0000033 magnetization       0.4733967
 augmentation part        4.4585669 magnetization       0.3697812

 Broyden mixing:
  rms(total) = 0.58103E-01    rms(broyden)= 0.57266E-01
  rms(prec ) = 0.62111E-01
  weight for this iteration     100.00

 eigenvalues of (default mixing * dielectric matrix)
  average eigenvalue GAMMA=   1.3638
  9.2151  2.3401  1.4915  1.4915  1.3083  0.9116  0.9116  0.6830  0.6830  0.5937
  0.5937  0.4821  0.4821  0.2098  0.2098  0.2141

 Free energy of the ion-electron system (eV)
  ---------------------------------------------------
  alpha Z        PSCENC =       252.65462290
  Ewald energy   TEWEN  =     27183.02885595
  -Hartree energ DENC   =    -42194.38875255
  -exchange      EXHF   =         0.00000000
  -V(xc)+E(xc)   XCENC  =     -1138.98822801
  PAW double counting   =     25966.85413876   -23898.31475379
  entropy T*S    EENTRO =        -0.00967330
  eigenvalues    EBANDS =     -1808.81698970
  atomic energy  EATOM  =     15387.19415778
  Solvation  Ediel_sol  =         0.00000000
  ---------------------------------------------------
  free energy    TOTEN  =      -250.78662196 eV

  energy without entropy =     -250.77694866  energy(sigma->0) =     -250.78178531


--------------------------------------------------------------------------------------------------------




----------------------------------------- Iteration    1(  22)  ---------------------------------------


    POTLOK:  cpu time    0.4089: real time    0.4089
    SETDIJ:  cpu time    0.0350: real time    0.0356
    EDDIAG:  cpu time    2.5966: real time    2.5966
  RMM-DIIS:  cpu time    8.9756: real time    8.9771
    ORTHCH:  cpu time    0.4039: real time    0.4040
       DOS:  cpu time    0.0020: real time    0.0015
    CHARGE:  cpu time    0.5769: real time    0.5774
    MIXING:  cpu time    0.0110: real time    0.0110
    --------------------------------------------
      LOOP:  cpu time   13.0100: real time   13.0156

 eigenvalue-minimisations  :  3602
 total energy-change (2. order) :-0.3436220E-01  (-0.6622653E-03)
 number of electron     256.0000033 magnetization       0.3598523
 augmentation part        4.4596546 magnetization       0.2778638

 Broyden mixing:
  rms(total) = 0.45305E-01    rms(broyden)= 0.45173E-01
  rms(prec ) = 0.48818E-01
  weight for this iteration     100.00

 eigenvalues of (default mixing * dielectric matrix)
  average eigenvalue GAMMA=   1.3721
  9.3719  2.4004  1.5830  1.5830  1.4188  1.0754  1.0754  0.6900  0.6900  0.6534
  0.6534  0.5177  0.4895  0.4895  0.2098  0.2098  0.2141

 Free energy of the ion-electron system (eV)
  ---------------------------------------------------
  alpha Z        PSCENC =       252.65462290
  Ewald energy   TEWEN  =     27183.02885595
  -Hartree energ DENC   =    -42189.61464500
  -exchange      EXHF   =         0.00000000
  -V(xc)+E(xc)   XCENC  =     -1139.12070675
  PAW double counting   =     25962.03593479   -23893.45368481
  entropy T*S    EENTRO =        -0.00987763
  eigenvalues    EBANDS =     -1813.53564137
  atomic energy  EATOM  =     15387.19415778
  Solvation  Ediel_sol  =         0.00000000
  ---------------------------------------------------
  free energy    TOTEN  =      -250.82098416 eV

  energy without entropy =     -250.81110653  energy(sigma->0) =     -250.81604534


--------------------------------------------------------------------------------------------------------




----------------------------------------- Iteration    1(  23)  ---------------------------------------


    POTLOK:  cpu time    0.4089: real time    0.4085
    SETDIJ:  cpu time    0.0350: real time    0.0356
    EDDIAG:  cpu time    2.5866: real time    2.5877
  RMM-DIIS:  cpu time    8.9356: real time    8.9375
    ORTHCH:  cpu time    0.4029: real time    0.4036
       DOS:  cpu time    0.0010: real time    0.0016
    CHARGE:  cpu time    0.5779: real time    0.5777
    MIXING:  cpu time    0.0110: real time    0.0114
    --------------------------------------------
      LOOP:  cpu time   12.9610: real time   12.9670

 eigenvalue-minimisations  :  3588
 total energy-change (2. order) :-0.2776767E-01  (-0.4060204E-03)
 number of electron     256.0000033 magnetization       0.2739404
 augmentation part        4.4527691 magnetization       0.2143031

 Broyden mixing:
  rms(total) = 0.28379E-01    rms(broyden)= 0.28278E-01
  rms(prec ) = 0.30127E-01
  weight for this iteration     100.00

 eigenvalues of (default mixing * dielectric matrix)
  average eigenvalue GAMMA=   1.3783
  9.4486  2.4485  1.6912  1.6912  1.7839  1.0922  1.0922  0.6863  0.6863  0.7335
  0.7335  0.5572  0.5572  0.4866  0.4866  0.2098  0.2098  0.2141

 Free energy of the ion-electron system (eV)
  ---------------------------------------------------
  alpha Z        PSCENC =       252.65462290
  Ewald energy   TEWEN  =     27183.02885595
  -Hartree energ DENC   =    -42184.75176031
  -exchange      EXHF   =         0.00000000
  -V(xc)+E(xc)   XCENC  =     -1139.21200360
  PAW double counting   =     25962.51509435   -23893.90993435
  entropy T*S    EENTRO =        -0.01067614
  eigenvalues    EBANDS =     -1818.35710840
  atomic energy  EATOM  =     15387.19415778
  Solvation  Ediel_sol  =         0.00000000
  ---------------------------------------------------
  free energy    TOTEN  =      -250.84875183 eV

  energy without entropy =     -250.83807568  energy(sigma->0) =     -250.84341376


--------------------------------------------------------------------------------------------------------




----------------------------------------- Iteration    1(  24)  ---------------------------------------


    POTLOK:  cpu time    0.4079: real time    0.4078
    SETDIJ:  cpu time    0.0370: real time    0.0368
    EDDIAG:  cpu time    2.5916: real time    2.5915
  RMM-DIIS:  cpu time    8.3997: real time    8.4022
    ORTHCH:  cpu time    0.4029: real time    0.4034
       DOS:  cpu time    0.0020: real time    0.0016
    CHARGE:  cpu time    0.5769: real time    0.5781
    MIXING:  cpu time    0.0120: real time    0.0119
    --------------------------------------------
      LOOP:  cpu time   12.4311: real time   12.4365

 eigenvalue-minimisations  :  3346
 total energy-change (2. order) :-0.3595999E-01  (-0.2685213E-03)
 number of electron     256.0000033 magnetization       0.2784580
 augmentation part        4.4562627 magnetization       0.2796782

 Broyden mixing:
  rms(total) = 0.56967E-01    rms(broyden)= 0.56780E-01
  rms(prec ) = 0.62307E-01
  weight for this iteration     100.00

 eigenvalues of (default mixing * dielectric matrix)
  average eigenvalue GAMMA=   1.3094
  9.4326  2.4301  1.7917  1.6459  1.6459  1.0951  1.0951  0.6891  0.6891  0.7427
  0.7427  0.5520  0.5520  0.4927  0.4927  0.2098  0.2098  0.2141  0.1554

 Free energy of the ion-electron system (eV)
  ---------------------------------------------------
  alpha Z        PSCENC =       252.65462290
  Ewald energy   TEWEN  =     27183.02885595
  -Hartree energ DENC   =    -42181.39978640
  -exchange      EXHF   =         0.00000000
  -V(xc)+E(xc)   XCENC  =     -1139.29751412
  PAW double counting   =     25965.55486815   -23896.93745779
  entropy T*S    EENTRO =        -0.01070796
  eigenvalues    EBANDS =     -1821.67175033
  atomic energy  EATOM  =     15387.19415778
  Solvation  Ediel_sol  =         0.00000000
  ---------------------------------------------------
  free energy    TOTEN  =      -250.88471182 eV

  energy without entropy =     -250.87400386  energy(sigma->0) =     -250.87935784


--------------------------------------------------------------------------------------------------------




----------------------------------------- Iteration    1(  25)  ---------------------------------------


    POTLOK:  cpu time    0.4079: real time    0.4081
    SETDIJ:  cpu time    0.0360: real time    0.0356
    EDDIAG:  cpu time    2.5876: real time    2.5880
  RMM-DIIS:  cpu time    6.5510: real time    6.5531
    ORTHCH:  cpu time    0.4039: real time    0.4038
       DOS:  cpu time    0.0010: real time    0.0015
    CHARGE:  cpu time    0.5779: real time    0.5776
    MIXING:  cpu time    0.0120: real time    0.0123
    --------------------------------------------
      LOOP:  cpu time   10.5774: real time   10.5833

 eigenvalue-minimisations  :  2565
 total energy-change (2. order) : 0.2293792E-03  (-0.2997583E-04)
 number of electron     256.0000033 magnetization       0.2541211
 augmentation part        4.4565429 magnetization       0.2535825

 Broyden mixing:
  rms(total) = 0.57036E-01    rms(broyden)= 0.57030E-01
  rms(prec ) = 0.62510E-01
  weight for this iteration     100.00

 eigenvalues of (default mixing * dielectric matrix)
  average eigenvalue GAMMA=   1.2850
  9.4397  2.3440  1.6949  1.6105  1.6105  1.1908  1.1908  0.5279  0.5279  0.6944
  0.6944  0.7283  0.7283  0.5372  0.5372  0.5047  0.5047  0.2098  0.2098  0.2141

 Free energy of the ion-electron system (eV)
  ---------------------------------------------------
  alpha Z        PSCENC =       252.65462290
  Ewald energy   TEWEN  =     27183.02885595
  -Hartree energ DENC   =    -42181.48907712
  -exchange      EXHF   =         0.00000000
  -V(xc)+E(xc)   XCENC  =     -1139.29627793
  PAW double counting   =     25965.50082035   -23896.88366649
  entropy T*S    EENTRO =        -0.01070644
  eigenvalues    EBANDS =     -1821.58321144
  atomic energy  EATOM  =     15387.19415778
  Solvation  Ediel_sol  =         0.00000000
  ---------------------------------------------------
[...]
    149       5.1316      0.00000
    150       5.1714      0.00000
    151       5.7883      0.00000
    152       5.8297      0.00000
    153       5.9391      0.00000
    154       5.9995      0.00000
    155       6.0453      0.00000
    156       6.0954      0.00000
    157       6.1208      0.00000
    158       6.1406      0.00000
    159       6.2771      0.00000
    160       6.4019      0.00000
    161       6.5425      0.00000
    162       6.6387      0.00000
    163       6.8130      0.00000
    164       6.8909      0.00000
    165       6.9799      0.00000
    166       7.0947      0.00000
    167       7.3421      0.00000
    168       7.4361      0.00000
    169       7.5220      0.00000
    170       7.5288      0.00000
    171       7.5784      0.00000
    172       7.6037      0.00000
    173       7.6871      0.00000
    174       7.8272      0.00000
    175       7.8351      0.00000
    176       7.9177      0.00000
    177       8.0302      0.00000
    178       8.0730      0.00000
    179       8.1214      0.00000
    180       8.3326      0.00000


--------------------------------------------------------------------------------------------------------


 soft charge-density along one line, spin component           1
         0         1         2         3         4         5         6         7         8         9
 total charge-density along one line
 
 soft charge-density along one line, spin component           2
         0         1         2         3         4         5         6         7         8         9
 total charge-density along one line
 
 pseudopotential strength for first ion, spin component:           1
 12.795 -15.618  -0.034  -0.000  -0.034   0.042   0.000   0.042
-15.618  19.088   0.043   0.000   0.043  -0.054  -0.000  -0.054
 -0.034   0.043  -9.154   0.000  -0.036  11.136  -0.000   0.049
 -0.000   0.000   0.000  -9.225   0.000  -0.000  11.231  -0.000
 -0.034   0.043  -0.036   0.000  -9.154   0.049  -0.000  11.136
  0.042  -0.054  11.136  -0.000   0.049 -13.424   0.000  -0.067
  0.000  -0.000  -0.000  11.231  -0.000   0.000 -13.555   0.000
  0.042  -0.054   0.049  -0.000  11.136  -0.067   0.000 -13.424
 pseudopotential strength for first ion, spin component:           2
 12.833 -15.667  -0.034  -0.000  -0.034   0.043   0.000   0.043
-15.667  19.151   0.044   0.000   0.044  -0.055  -0.000  -0.055
 -0.034   0.044  -9.196   0.000  -0.021  11.195  -0.000   0.028
 -0.000   0.000   0.000  -9.246   0.000  -0.000  11.261  -0.000
 -0.034   0.044  -0.021   0.000  -9.196   0.028  -0.000  11.195
  0.043  -0.055  11.195  -0.000   0.028 -13.507   0.000  -0.037
  0.000  -0.000  -0.000  11.261  -0.000   0.000 -13.596   0.000
  0.043  -0.055   0.028  -0.000  11.195  -0.037   0.000 -13.507
 total augmentation occupancy for first ion, spin component:           1
  2.357   0.208   0.069   0.000   0.069   0.026   0.000   0.026
  0.208   0.048   0.101   0.000   0.101   0.016   0.000   0.016
  0.069   0.101   1.841   0.000  -0.051   0.140   0.000   0.015
  0.000   0.000   0.000   1.779   0.000   0.000   0.186   0.000
  0.069   0.101  -0.051   0.000   1.841   0.015   0.000   0.140
  0.026   0.016   0.140   0.000   0.015   0.014   0.000   0.004
  0.000   0.000   0.000   0.186   0.000   0.000   0.024   0.000
  0.026   0.016   0.015   0.000   0.140   0.004   0.000   0.014
 total augmentation occupancy for first ion, spin component:           2
  0.006   0.003   0.000  -0.000   0.000   0.000   0.000   0.000
  0.003   0.000   0.001  -0.000   0.001   0.000   0.000   0.000
  0.000   0.001  -0.041   0.000   0.026   0.001  -0.000   0.001
 -0.000  -0.000   0.000  -0.005  -0.000   0.000   0.001   0.000
  0.000   0.001   0.026  -0.000  -0.041   0.001   0.000   0.001
  0.000   0.000   0.001   0.000   0.001   0.000   0.000   0.000
  0.000   0.000  -0.000   0.001   0.000   0.000   0.000   0.000
  0.000   0.000   0.001   0.000   0.001   0.000   0.000   0.000


------------------------ aborting loop because EDIFF is reached ----------------------------------------


    CHARGE:  cpu time    0.5689: real time    0.5692
    FORLOC:  cpu time    0.0400: real time    0.0396
    FORNL :  cpu time    3.6864: real time    3.6872
    STRESS:  cpu time   11.0923: real time   11.0969
    FORCOR:  cpu time    0.4249: real time    0.4263
    FORHAR:  cpu time    0.0740: real time    0.0743
    MIXING:  cpu time    0.0060: real time    0.0069
    OFIELD:  cpu time    0.0000: real time    0.0000

 ---------------------------------------------------------------------------------------------

         DFTD3 V3.0 Rev 1        
 Edisp (eV)   -8.49614

 E6    (eV) :    -4.8248
 E8    (eV) :    -3.6713
 % E8        : 43.21
    FORVDW:  cpu time    0.2340: real time    0.2339

  FORCE on cell =-STRESS in cart. coord.  units (eV):
  Direction    XX          YY          ZZ          XY          YZ          ZX
  --------------------------------------------------------------------------------------
  Alpha Z   252.65462   252.65462   252.65462
  Ewald   -4030.70510 -4030.64258 32858.96487-36036.28188    -0.30499    -0.32899
  Hartree  1623.21237  1623.09115 36511.84517-34842.08152    -0.09806    -0.08677
  E(xc)   -1258.32937 -1258.33085 -1271.98606     1.33324     0.00817     0.00915
  Local   -1197.20030 -1197.12748-72828.61845 70864.97083     0.37468     0.38205
  n-local   -79.17896   -79.18568    51.28120   -14.84281    -0.08003    -0.11404
  augment    45.83079    45.82580    18.09031     1.68282     0.01068     0.01224
  Kinetic  4670.35139  4670.30611  4421.49225    12.17836     0.04296     0.05253
  Fock        0.00000     0.00000     0.00000     0.00000     0.00000     0.00000
  vdW        -8.07405    -8.07381    -8.70084     0.79962     0.00008     0.00008
  -------------------------------------------------------------------------------------
  Total      18.56140    18.51727     5.02309   -12.24134    -0.04651    -0.07375
  in kB      26.54071    26.47761     7.18245   -17.50374    -0.06651    -0.10545
  external pressure =       20.07 kB  Pullay stress =        0.00 kB


 VOLUME and BASIS-vectors are now :
 -----------------------------------------------------------------------------
  energy-cutoff  :      500.00
  volume of cell :     1120.49
      direct lattice vectors                 reciprocal lattice vectors
     0.000000000  0.000000000  6.861226510     0.000000000  0.000000000  0.145746537
     4.967737390 -4.967737390  0.000000000     0.100649443 -0.100649443  0.000000000
    16.436842470 16.436842470  0.000000000     0.030419468  0.030419468  0.000000000

  length of vectors
     6.861226510  7.025441591 23.245205544     0.145746537  0.142339807  0.043019624


 FORCES acting on ions
    electron-ion (+dipol)            ewald-force                    non-local-force                 convergence-correction
 -----------------------------------------------------------------------------------------------
   0.698E+03 0.698E+03 0.339E-03   -.712E+03 -.712E+03 -.317E-04   0.140E+02 0.140E+02 -.268E-03   -.180E-01 -.180E-01 0.215E-06
   0.698E+03 0.698E+03 0.275E-03   -.712E+03 -.712E+03 0.285E-04   0.140E+02 0.140E+02 -.271E-03   -.174E-01 -.174E-01 0.614E-07
   0.584E+03 0.605E+03 0.183E-02   -.585E+03 -.601E+03 0.111E-03   0.198E+01 -.432E+01 0.109E-02   0.772E-02 -.151E-02 -.173E-02
   0.584E+03 0.605E+03 -.110E-02   -.585E+03 -.601E+03 -.912E-04   0.198E+01 -.432E+01 0.834E-03   0.772E-02 -.151E-02 0.173E-02
   0.605E+03 0.584E+03 0.174E-02   -.601E+03 -.585E+03 0.104E-03   -.432E+01 0.198E+01 -.597E-04   -.150E-02 0.772E-02 -.173E-02
   0.605E+03 0.584E+03 -.120E-02   -.601E+03 -.585E+03 -.840E-04   -.432E+01 0.198E+01 -.314E-03   -.150E-02 0.772E-02 0.173E-02
   0.417E+03 0.417E+03 0.959E-03   -.416E+03 -.416E+03 -.743E-03   0.152E+00 0.151E+00 -.159E-02   0.178E-01 0.178E-01 -.583E-06
   0.417E+03 0.417E+03 0.663E-05   -.416E+03 -.416E+03 0.163E-03   0.154E+00 0.153E+00 -.151E-02   0.159E-01 0.159E-01 -.204E-05
   0.361E+03 0.361E+03 0.104E-02   -.361E+03 -.361E+03 -.391E-03   0.327E+00 0.329E+00 -.108E-02   0.186E-01 0.186E-01 0.770E-06
   0.361E+03 0.361E+03 0.206E-03   -.361E+03 -.361E+03 0.222E-03   0.326E+00 0.328E+00 -.784E-03   0.182E-01 0.182E-01 -.792E-06
   0.175E+03 0.202E+03 -.164E-01   -.174E+03 -.203E+03 0.118E-01   -.854E+00 0.114E+01 0.708E-02   0.252E-01 0.210E-01 0.547E-03
   0.175E+03 0.202E+03 -.359E-02   -.174E+03 -.203E+03 0.558E-02   -.854E+00 0.114E+01 -.343E-03   0.252E-01 0.210E-01 -.572E-03
   0.202E+03 0.175E+03 -.155E-01   -.203E+03 -.174E+03 0.111E-01   0.114E+01 -.860E+00 0.663E-02   0.210E-01 0.252E-01 0.545E-03
   0.202E+03 0.175E+03 -.429E-02   -.203E+03 -.174E+03 0.633E-02   0.114E+01 -.860E+00 -.672E-03   0.210E-01 0.252E-01 -.570E-03
   0.210E+02 0.209E+02 -.102E-01   -.187E+02 -.186E+02 0.559E-02   -.190E+01 -.191E+01 0.636E-02   0.242E-01 0.239E-01 -.195E-04
   0.211E+02 0.209E+02 -.934E-02   -.187E+02 -.186E+02 0.440E-02   -.190E+01 -.192E+01 0.666E-02   0.239E-01 0.236E-01 0.140E-04
   -.420E+02 -.418E+02 0.112E-01   0.397E+02 0.397E+02 0.232E-01   0.222E+01 0.211E+01 -.357E-01   0.125E-01 0.123E-01 0.147E-03
   -.420E+02 -.418E+02 -.788E-02   0.398E+02 0.397E+02 0.425E-01   0.219E+01 0.208E+01 -.335E-01   0.157E-01 0.156E-01 0.227E-03
   -.195E+03 -.218E+03 0.293E-01   0.195E+03 0.219E+03 -.416E-01   0.175E+00 -.742E+00 0.875E-02   0.909E-02 0.171E-01 0.309E-02
   -.195E+03 -.218E+03 0.564E-02   0.195E+03 0.219E+03 -.140E-01   0.177E+00 -.745E+00 0.797E-02   0.920E-02 0.169E-01 -.187E-02
   -.218E+03 -.196E+03 0.231E-01   0.219E+03 0.195E+03 -.355E-01   -.781E+00 0.199E+00 0.922E-02   0.160E-01 0.940E-02 0.301E-02
   -.218E+03 -.196E+03 0.141E-01   0.219E+03 0.195E+03 -.247E-01   -.776E+00 0.196E+00 0.100E-01   0.159E-01 0.932E-02 -.168E-02
   -.369E+03 -.369E+03 0.627E-02   0.367E+03 0.367E+03 -.147E-01   0.133E+01 0.131E+01 0.809E-02   0.247E-01 0.250E-01 -.467E-03
   -.369E+03 -.369E+03 0.159E-01   0.367E+03 0.367E+03 -.223E-01   0.136E+01 0.135E+01 0.564E-02   0.280E-01 0.283E-01 -.766E-03
   -.412E+03 -.412E+03 -.501E-01   0.413E+03 0.413E+03 0.865E-01   -.311E+00 -.364E+00 -.316E-01   0.236E-01 0.234E-01 -.107E-02
   -.412E+03 -.412E+03 -.436E-01   0.412E+03 0.412E+03 0.850E-01   -.277E+00 -.319E+00 -.382E-01   0.469E-01 0.468E-01 -.431E-03
   -.582E+03 -.596E+03 -.184E-01   0.591E+03 0.599E+03 0.407E-01   -.867E+01 -.207E+01 0.291E-02   0.269E-01 -.106E-01 -.244E-01
   -.582E+03 -.596E+03 0.662E-01   0.591E+03 0.599E+03 -.963E-01   -.867E+01 -.207E+01 0.472E-02   0.274E-01 -.108E-01 0.229E-01
   -.596E+03 -.583E+03 -.336E-01   0.599E+03 0.591E+03 0.622E-01   -.209E+01 -.866E+01 -.274E-02   -.981E-02 0.258E-01 -.245E-01
   -.596E+03 -.583E+03 0.780E-01   0.599E+03 0.591E+03 -.108E+00   -.209E+01 -.866E+01 0.537E-02   -.966E-02 0.257E-01 0.227E-01
   -.674E+03 -.674E+03 -.175E-01   0.688E+03 0.688E+03 0.579E-02   -.148E+02 -.148E+02 0.112E-01   0.573E-02 0.718E-02 0.962E-04
   -.674E+03 -.674E+03 -.429E-02   0.689E+03 0.689E+03 -.155E-01   -.148E+02 -.148E+02 0.177E-01   0.472E-02 0.626E-02 -.516E-03
   0.380E+03 0.380E+03 0.242E-02   -.381E+03 -.381E+03 0.110E-03   0.533E+00 0.538E+00 0.181E-02   0.264E-02 0.264E-02 -.261E-02
   0.380E+03 0.380E+03 -.345E-02   -.381E+03 -.381E+03 -.819E-04   0.533E+00 0.538E+00 0.159E-02   0.264E-02 0.264E-02 0.261E-02
   0.423E+03 0.423E+03 -.191E-04   -.420E+03 -.420E+03 -.485E-04   -.248E+01 -.248E+01 -.105E-01   0.452E-03 0.450E-03 -.130E-06
   0.423E+03 0.423E+03 -.103E-03   -.420E+03 -.420E+03 0.420E-04   -.248E+01 -.248E+01 -.105E-01   0.154E-03 0.153E-03 -.169E-06
   0.124E+03 0.124E+03 0.205E-01   -.125E+03 -.125E+03 -.189E-01   0.538E+00 0.529E+00 -.103E-01   0.166E-01 0.166E-01 0.999E-05
   0.124E+03 0.124E+03 0.126E-01   -.125E+03 -.125E+03 -.117E-01   0.532E+00 0.523E+00 -.100E-01   0.153E-01 0.153E-01 0.743E-05
   0.127E+03 0.127E+03 -.189E-02   -.126E+03 -.126E+03 0.172E-03   -.593E-01 -.555E-01 -.113E-01   0.151E-01 0.151E-01 0.520E-04
   0.127E+03 0.127E+03 0.390E-04   -.126E+03 -.126E+03 -.306E-03   -.592E-01 -.555E-01 -.116E-01   0.151E-01 0.151E-01 -.523E-04
   -.136E+03 -.136E+03 0.109E+00   0.136E+03 0.136E+03 -.104E+00   0.445E+00 0.444E+00 -.318E-01   0.162E-01 0.164E-01 0.185E-02
   -.136E+03 -.136E+03 -.845E-01   0.136E+03 0.136E+03 0.865E-01   0.451E+00 0.441E+00 0.164E-01   0.162E-01 0.164E-01 -.172E-02
   -.136E+03 -.136E+03 -.530E-01   0.137E+03 0.137E+03 0.449E-01   -.470E+00 -.482E+00 0.385E-02   0.139E-01 0.136E-01 -.931E-04
   -.136E+03 -.136E+03 -.486E-01   0.137E+03 0.137E+03 0.404E-01   -.465E+00 -.474E+00 0.199E-02   0.153E-01 0.150E-01 -.128E-04
   -.380E+03 -.381E+03 -.432E-01   0.379E+03 0.379E+03 0.388E-01   0.157E+01 0.159E+01 0.568E-02   0.751E-02 0.698E-02 0.112E-03
   -.380E+03 -.381E+03 -.418E-01   0.379E+03 0.379E+03 0.377E-01   0.158E+01 0.159E+01 0.634E-02   0.130E-01 0.125E-01 -.651E-04
   -.359E+03 -.359E+03 -.133E+00   0.361E+03 0.361E+03 0.151E+00   -.181E+01 -.181E+01 0.443E-01   0.236E-01 0.242E-01 -.334E-01
   -.359E+03 -.359E+03 0.276E+00   0.361E+03 0.361E+03 -.281E+00   -.181E+01 -.181E+01 -.599E-01   0.237E-01 0.242E-01 0.334E-01
 -----------------------------------------------------------------------------------------------
   0.276E+02 0.278E+02 0.303E-01   -.853E-12 0.182E-11 0.380E-13   -.282E+02 -.285E+02 -.102E+00   0.632E+00 0.632E+00 -.353E-02
 
 
 POSITION                                       TOTAL-FORCE (eV/Angst)
 -----------------------------------------------------------------------------------
      0.27224     -0.27224      2.51062         0.119562      0.120643      0.001616
      0.27224     -0.27224      5.94124         0.118920      0.120000      0.001609
      2.75611     -0.84194      0.79532         0.305519     -1.042280      0.002882
      2.75611     -0.84194      4.22593         0.305520     -1.042282      0.002945
      4.67028     -2.75611      0.79532        -1.041577      0.305117      0.001638
      4.67028     -2.75611      4.22593        -1.041579      0.305118      0.001703
      2.18641      1.64193      2.51062         0.434269      0.434758      0.000201
      2.18641      1.64193      5.94124         0.434724      0.435210      0.000233
      5.23998     -0.27224      2.51062        -0.320152     -0.319443      0.001143
      5.23998     -0.27224      5.94124        -0.320407     -0.319696      0.001220
      4.67028      2.21163      0.79532         0.042265     -0.005617      0.004614
      4.67028      2.21163      4.22593         0.042233     -0.005874      0.002649
      7.72385     -0.84194      0.79532        -0.004451      0.039986      0.004303
      7.72385     -0.84194      4.22593        -0.004697      0.039974      0.002372
      7.15415      1.64193      2.51062         0.450657      0.451050      0.003273
      7.15415      1.64193      5.94124         0.450526      0.450880      0.003312
      5.25438      4.71215      2.51178         0.002069      0.001069      0.000519
      5.25419      4.71191      5.94218         0.011464      0.010554      0.002893
      7.75972      4.17222      0.79606        -0.000767      0.014837      0.001105
      7.75981      4.17223      4.22693        -0.002205      0.015559     -0.000705
      9.68626      2.24680      0.79609         0.015510      0.000013      0.001317
      9.68629      2.24681      4.22696         0.015244      0.000759     -0.000719
      7.20213      6.65766      2.51237         0.020121      0.018425      0.000801
      7.20217      6.65771      5.94314         0.015725      0.014042      0.000065
     10.28226      4.77231      2.51096         0.015170      0.015472      0.005252
     10.28304      4.77266      5.94171        -0.003220     -0.002697      0.004295
      9.89976      7.51020      0.79769        -0.009447     -0.022092      0.002310
      9.89972      7.51031      4.22857        -0.008099     -0.023619     -0.000976
     13.02137      4.38926      0.79770        -0.021534     -0.012272      0.002968
     13.02128      4.38923      4.22840        -0.021616     -0.012692     -0.000677
     12.24956      6.73941      2.51265        -0.018541     -0.018321      0.001189
     12.24961      6.73926      5.94323         0.000935      0.001083     -0.000933
      1.22932      0.68485      0.79532        -0.946903     -0.941198      0.003308
      1.22932      0.68485      4.22593        -0.946897     -0.941192      0.002244
      3.71319     -1.79902      2.51062         0.724257      0.721458     -0.009020
      3.71319     -1.79902      5.94124         0.724305      0.721506     -0.009018
      3.71319      3.16871      2.51062        -0.016762     -0.021029     -0.007131
      3.71319      3.16871      5.94124        -0.015164     -0.019429     -0.007576
      6.19706      0.68485      0.79532         0.245103      0.247424     -0.011400
      6.19706      0.68485      4.22593         0.245096      0.247448     -0.010348
      6.20140      5.65533      0.79760         0.001829      0.007011     -0.023399
      6.20142      5.65549      4.22697         0.003870      0.004095      0.018232
      8.73119      3.21742      2.51128        -0.010009     -0.017825     -0.002741
      8.73133      3.21751      5.94192        -0.013046     -0.019978     -0.004623
      8.71249      8.16877      2.51287         0.012866      0.021622      0.002966
      8.71231      8.16883      5.94348         0.011342      0.020747      0.003729
     11.32749      5.81662      0.79584        -0.001194     -0.000450      0.030234
     11.32737      5.81643      4.22872        -0.000834      0.002126     -0.029873
 -----------------------------------------------------------------------------------
    total drift:                                0.007181     -0.009595     -0.075666
  FORCES: max atom, RMS     0.030261    0.015190
  Number: max atom                47
  FORCE total and by dimension    0.105242    0.030234


--------------------------------------------------------------------------------------------------------



  FREE ENERGIE OF THE ION-ELECTRON SYSTEM (eV)
  ---------------------------------------------------
  free  energy   TOTEN  =      -260.44962035 eV

  energy  without entropy=     -260.43941569  energy(sigma->0) =     -260.44451802
 
 d Force =-0.4082859E-05[-0.167E-04, 0.853E-05]  d Energy =-0.1676817E-03 0.164E-03
 d Force = 0.1157703E+01[ 0.116E+01, 0.116E+01]  d Ewald  = 0.1157703E+01 0.681E-06


--------------------------------------------------------------------------------------------------------


    POTLOK:  cpu time    0.4519: real time    0.4521


--------------------------------------------------------------------------------------------------------




--------------------------------------------------------------------------------------------------------


  
 reached required accuracy - stopping structural energy minimisation
     LOOP+:  cpu time   71.5771: real time   71.6290
    4ORBIT:  cpu time    0.0000: real time    0.0000

 total amount of memory used by VASP on root node   107222. kBytes
========================================================================

   base      :      30000. kBytes
   nonlr-proj:      10718. kBytes
   fftplans  :       8892. kBytes
   grid      :      22635. kBytes
   one-center:        129. kBytes
   wavefun   :      34848. kBytes
 
  
  
 General timing and accounting informations for this job:
 ========================================================
  
                  Total CPU time used (sec):     3992.798
                            User time (sec):     3988.560
                          System time (sec):        4.238
                         Elapsed time (sec):     4023.892
  
                   Maximum memory used (kb):      187668.
                   Average memory used (kb):           0.
  
                          Minor page faults:       162985
                          Major page faults:            0
                 Voluntary context switches:        10535
