PbO2_suf110_2x1x4_2fix                  
           1
     0.000000    0.000000    6.861227
     4.967737   -4.967737    0.000000
    16.436842   16.436842    0.000000
   O    Pb
  32  16
Direct configuration=     1
   0.36591488  0.05480146  0.00000000
   0.86591488  0.05480146  0.00000000
   0.11591488  0.36214146  0.05822799
   0.61591488  0.36214146  0.05822799
   0.11591488  0.74746146  0.05822799
   0.61591488  0.74746146  0.05822799
   0.36591488  0.05480146  0.11645598
   0.86591488  0.05480146  0.11645598
   0.36591488  0.55480146  0.15111593
   0.86591488  0.55480146  0.15111593
   0.11591488  0.24746146  0.20934392
   0.61591488  0.24746146  0.20934392
   0.11591488  0.86214146  0.20934392
   0.61591488  0.86214146  0.20934392
   0.36591488  0.55480146  0.26757191
   0.86591488  0.55480146  0.26757191
   0.36591488  0.05480146  0.30223186
   0.86591488  0.05480146  0.30223186
   0.11591488  0.36214146  0.36045984
   0.61591488  0.36214146  0.36045984
   0.11591488  0.74746146  0.36045984
   0.61591488  0.74746146  0.36045984
   0.36591488  0.05480146  0.41868783
   0.86591488  0.05480146  0.41868783
   0.36591488  0.55480146  0.45334778
   0.86591488  0.55480146  0.45334778
   0.11591488  0.24746146  0.51157577
   0.61591488  0.24746146  0.51157577
   0.11591488  0.86214146  0.51157577
   0.61591488  0.86214146  0.51157577
   0.36591488  0.55480146  0.56980376
   0.86591488  0.55480146  0.56980376
   0.11591488  0.05480146  0.05822799
   0.61591488  0.05480146  0.05822799
   0.36591488  0.55480146  0.05822799
   0.86591488  0.55480146  0.05822799
   0.36591488  0.05480146  0.20934392
   0.86591488  0.05480146  0.20934392
   0.11591488  0.55480146  0.20934392
   0.61591488  0.55480146  0.20934392
   0.11591488  0.05480146  0.36045984
   0.61591488  0.05480146  0.36045984
   0.36591488  0.55480146  0.36045984
   0.86591488  0.55480146  0.36045984
   0.36591488  0.05480146  0.51157577
   0.86591488  0.05480146  0.51157577
   0.11591488  0.55480146  0.51157577
   0.61591488  0.55480146  0.51157577
Direct configuration=     2
   0.36591488  0.05480146  0.00000000
   0.86591488  0.05480146  0.00000000
   0.11591488  0.36214146  0.05822799
   0.61591488  0.36214146  0.05822799
   0.11591488  0.74746146  0.05822799
   0.61591488  0.74746146  0.05822799
   0.36591488  0.05480146  0.11645598
   0.86591488  0.05480146  0.11645598
   0.36591488  0.55480146  0.15111593
   0.86591488  0.55480146  0.15111593
   0.11591488  0.24746146  0.20934392
   0.61591488  0.24746146  0.20934392
   0.11591488  0.86214146  0.20934392
   0.61591488  0.86214146  0.20934392
   0.36591488  0.55480146  0.26757191
   0.86591488  0.55480146  0.26757191
   0.36591214  0.05479941  0.30224521
   0.86591214  0.05479941  0.30224527
   0.11592318  0.36197308  0.36047583
   0.61592264  0.36197308  0.36047583
   0.11592058  0.74763301  0.36047562
   0.61592004  0.74763300  0.36047562
   0.36591275  0.05479931  0.41889434
   0.86591275  0.05479931  0.41889441
   0.36591279  0.55479935  0.45312034
   0.86591278  0.55479935  0.45311982
   0.11592252  0.24616807  0.51180072
   0.61592094  0.24616806  0.51180073
   0.11592369  0.86343781  0.51180140
   0.61592212  0.86343779  0.51180140
   0.36591104  0.55480001  0.56975523
   0.86591105  0.55480000  0.56975488
   0.11591488  0.05480146  0.05822799
   0.61591488  0.05480146  0.05822799
   0.36591488  0.55480146  0.05822799
   0.86591488  0.55480146  0.05822799
   0.36591488  0.05480146  0.20934392
   0.86591488  0.05480146  0.20934392
   0.11591488  0.55480146  0.20934392
   0.61591488  0.55480146  0.20934392
   0.11592124  0.05479991  0.36033931
   0.61592115  0.05479991  0.36033931
   0.36590830  0.55479969  0.36043498
   0.86590829  0.55479969  0.36043500
   0.36591046  0.05479419  0.51112076
   0.86591046  0.05479419  0.51112081
   0.11592128  0.55480066  0.51209164
   0.61592314  0.55480070  0.51209164
Direct configuration=     3
   0.36591488  0.05480146  0.00000000
   0.86591488  0.05480146  0.00000000
   0.11591488  0.36214146  0.05822799
   0.61591488  0.36214146  0.05822799
   0.11591488  0.74746146  0.05822799
   0.61591488  0.74746146  0.05822799
   0.36591488  0.05480146  0.11645598
   0.86591488  0.05480146  0.11645598
   0.36591488  0.55480146  0.15111593
   0.86591488  0.55480146  0.15111593
   0.11591488  0.24746146  0.20934392
   0.61591488  0.24746146  0.20934392
   0.11591488  0.86214146  0.20934392
   0.61591488  0.86214146  0.20934392
   0.36591488  0.55480146  0.26757191
   0.86591488  0.55480146  0.26757191
   0.36590391  0.05479323  0.30228529
   0.86590391  0.05479323  0.30228550
   0.11594808  0.36146792  0.36052379
   0.61594590  0.36146793  0.36052379
   0.11593769  0.74814763  0.36052293
   0.61593552  0.74814761  0.36052293
   0.36590635  0.05479285  0.41951388
   0.86590637  0.05479286  0.41951415
   0.36590650  0.55479301  0.45243800
   0.86590649  0.55479299  0.45243593
   0.11594543  0.24228787  0.51247558
   0.61593914  0.24228786  0.51247559
   0.11595013  0.86732685  0.51247827
   0.61594385  0.86732678  0.51247827
   0.36589953  0.55479563  0.56960963
   0.86589955  0.55479562  0.56960825
   0.11591488  0.05480146  0.05822799
   0.61591488  0.05480146  0.05822799
   0.36591488  0.55480146  0.05822799
   0.86591488  0.55480146  0.05822799
   0.36591488  0.05480146  0.20934392
   0.86591488  0.05480146  0.20934392
   0.11591488  0.55480146  0.20934392
   0.61591488  0.55480146  0.20934392
   0.11594033  0.05479524  0.35997769
   0.61593996  0.05479525  0.35997769
   0.36588854  0.55479436  0.36036039
   0.86588853  0.55479435  0.36036047
   0.36589720  0.05477237  0.50975573
   0.86589721  0.05477238  0.50975591
   0.11594046  0.55479826  0.51363926
   0.61594792  0.55479843  0.51363926
Direct configuration=     4
   0.36591488  0.05480146  0.00000000
   0.86591488  0.05480146  0.00000000
   0.11591488  0.36214146  0.05822799
   0.61591488  0.36214146  0.05822799
   0.11591488  0.74746146  0.05822799
   0.61591488  0.74746146  0.05822799
   0.36591488  0.05480146  0.11645598
   0.86591488  0.05480146  0.11645598
   0.36591488  0.55480146  0.15111593
   0.86591488  0.55480146  0.15111593
   0.11591488  0.24746146  0.20934392
   0.61591488  0.24746146  0.20934392
   0.11591488  0.86214146  0.20934392
   0.61591488  0.86214146  0.20934392
   0.36591488  0.55480146  0.26757191
   0.86591488  0.55480146  0.26757191
   0.36590157  0.05479147  0.30229668
   0.86590157  0.05479147  0.30229693
   0.11595515  0.36132438  0.36053742
   0.61595251  0.36132439  0.36053742
   0.11594256  0.74829386  0.36053638
   0.61593991  0.74829383  0.36053637
   0.36590453  0.05479101  0.41968991
   0.86590456  0.05479102  0.41969024
   0.36590471  0.55479121  0.45224412
   0.86590471  0.55479118  0.45224160
   0.11595193  0.24118536  0.51266734
   0.61594430  0.24118534  0.51266734
   0.11595765  0.86843188  0.51267060
   0.61595002  0.86843179  0.51267059
   0.36589626  0.55479439  0.56956826
   0.86589628  0.55479438  0.56956658
   0.11591488  0.05480146  0.05822799
   0.61591488  0.05480146  0.05822799
   0.36591488  0.55480146  0.05822799
   0.86591488  0.55480146  0.05822799
   0.36591488  0.05480146  0.20934392
   0.86591488  0.05480146  0.20934392
   0.11591488  0.55480146  0.20934392
   0.61591488  0.55480146  0.20934392
   0.11594575  0.05479392  0.35987494
   0.61594531  0.05479392  0.35987494
   0.36588292  0.55479284  0.36033919
   0.86588291  0.55479284  0.36033929
   0.36589344  0.05476617  0.50936787
   0.86589345  0.05476618  0.50936809
   0.11594591  0.55479757  0.51407900
   0.61595496  0.55479778  0.51407900
Direct configuration=     5
   0.36591488  0.05480146  0.00000000
   0.86591488  0.05480146  0.00000000
   0.11591488  0.36214146  0.05822799
   0.61591488  0.36214146  0.05822799
   0.11591488  0.74746146  0.05822799
   0.61591488  0.74746146  0.05822799
   0.36591488  0.05480146  0.11645598
   0.86591488  0.05480146  0.11645598
   0.36591488  0.55480146  0.15111593
   0.86591488  0.55480146  0.15111593
   0.11591488  0.24746146  0.20934392
   0.61591488  0.24746146  0.20934392
   0.11591488  0.86214146  0.20934392
   0.61591488  0.86214146  0.20934392
   0.36591488  0.55480146  0.26757191
   0.86591488  0.55480146  0.26757191
   0.36590587  0.05478729  0.30226453
   0.86590532  0.05478799  0.30226473
   0.11595681  0.36097394  0.36052003
   0.61595507  0.36097395  0.36052003
   0.11594826  0.74864248  0.36051880
   0.61594652  0.74864246  0.36051880
   0.36590684  0.05478490  0.41924678
   0.86590696  0.05478572  0.41924720
   0.36590833  0.55478711  0.45237413
   0.86590833  0.55478708  0.45237252
   0.11595419  0.24110680  0.51311408
   0.61594812  0.24110678  0.51311409
   0.11595952  0.86848987  0.51311755
   0.61595303  0.86848926  0.51311735
   0.36589997  0.55479048  0.56971334
   0.86589997  0.55479047  0.56971053
   0.11591488  0.05480146  0.05822799
   0.61591488  0.05480146  0.05822799
   0.36591488  0.55480146  0.05822799
   0.86591488  0.55480146  0.05822799
   0.36591488  0.05480146  0.20934392
   0.86591488  0.05480146  0.20934392
   0.11591488  0.55480146  0.20934392
   0.61591488  0.55480146  0.20934392
   0.11593828  0.05480569  0.35986677
   0.61593747  0.05480569  0.35986677
   0.36588682  0.55479043  0.36035666
   0.86588681  0.55479043  0.36035624
   0.36589425  0.05478939  0.50912705
   0.86589425  0.05478940  0.50912734
   0.11594663  0.55478716  0.51442479
   0.61595641  0.55478734  0.51442479
Direct configuration=     6
   0.36591488  0.05480146  0.00000000
   0.86591488  0.05480146  0.00000000
   0.11591488  0.36214146  0.05822799
   0.61591488  0.36214146  0.05822799
   0.11591488  0.74746146  0.05822799
   0.61591488  0.74746146  0.05822799
   0.36591488  0.05480146  0.11645598
   0.86591488  0.05480146  0.11645598
   0.36591488  0.55480146  0.15111593
   0.86591488  0.55480146  0.15111593
   0.11591488  0.24746146  0.20934392
   0.61591488  0.24746146  0.20934392
   0.11591488  0.86214146  0.20934392
   0.61591488  0.86214146  0.20934392
   0.36591488  0.55480146  0.26757191
   0.86591488  0.55480146  0.26757191
   0.36591874  0.05477475  0.30216810
   0.86591657  0.05477753  0.30216813
   0.11596180  0.35992261  0.36046786
   0.61596278  0.35992263  0.36046787
   0.11596537  0.74968833  0.36046608
   0.61596635  0.74968834  0.36046609
   0.36591379  0.05476658  0.41791739
   0.86591418  0.05476983  0.41791809
   0.36591917  0.55477481  0.45276417
   0.86591921  0.55477477  0.45276528
   0.11596097  0.24087112  0.51445433
   0.61595955  0.24087112  0.51445433
   0.11596516  0.86866383  0.51445839
   0.61596205  0.86866165  0.51445762
   0.36591110  0.55477874  0.57014857
   0.86591105  0.55477876  0.57014238
   0.11591488  0.05480146  0.05822799
   0.61591488  0.05480146  0.05822799
   0.36591488  0.55480146  0.05822799
   0.86591488  0.55480146  0.05822799
   0.36591488  0.05480146  0.20934392
   0.86591488  0.05480146  0.20934392
   0.11591488  0.55480146  0.20934392
   0.61591488  0.55480146  0.20934392
   0.11591587  0.05484102  0.35984226
   0.61591396  0.05484099  0.35984227
   0.36589850  0.55478321  0.36040908
   0.86589850  0.55478321  0.36040710
   0.36589670  0.05485903  0.50840460
   0.86589666  0.05485906  0.50840509
   0.11594879  0.55475592  0.51546217
   0.61596078  0.55475601  0.51546218
Direct configuration=     7
   0.36591488  0.05480146  0.00000000
   0.86591488  0.05480146  0.00000000
   0.11591488  0.36214146  0.05822799
   0.61591488  0.36214146  0.05822799
   0.11591488  0.74746146  0.05822799
   0.61591488  0.74746146  0.05822799
   0.36591488  0.05480146  0.11645598
   0.86591488  0.05480146  0.11645598
   0.36591488  0.55480146  0.15111593
   0.86591488  0.55480146  0.15111593
   0.11591488  0.24746146  0.20934392
   0.61591488  0.24746146  0.20934392
   0.11591488  0.86214146  0.20934392
   0.61591488  0.86214146  0.20934392
   0.36591488  0.55480146  0.26757191
   0.86591488  0.55480146  0.26757191
   0.36594450  0.05474966  0.30197523
   0.86593907  0.05475661  0.30197493
   0.11597177  0.35781994  0.36036352
   0.61597818  0.35781999  0.36036356
   0.11599960  0.75178003  0.36036063
   0.61600600  0.75178010  0.36036067
   0.36592768  0.05472995  0.41525860
   0.86592861  0.05473804  0.41525986
   0.36594086  0.55475020  0.45354424
   0.86594096  0.55475015  0.45355080
   0.11597451  0.24039976  0.51713482
   0.61598242  0.24039978  0.51713480
   0.11597643  0.86901176  0.51714008
   0.61598010  0.86900644  0.51713815
   0.36593337  0.55475526  0.57101905
   0.86593320  0.55475533  0.57100606
   0.11591488  0.05480146  0.05822799
   0.61591488  0.05480146  0.05822799
   0.36591488  0.55480146  0.05822799
   0.86591488  0.55480146  0.05822799
   0.36591488  0.05480146  0.20934392
   0.86591488  0.05480146  0.20934392
   0.11591488  0.55480146  0.20934392
   0.61591488  0.55480146  0.20934392
   0.11587106  0.05491167  0.35979325
   0.61586694  0.05491158  0.35979327
   0.36592186  0.55476877  0.36051392
   0.86592189  0.55476877  0.36050880
   0.36590161  0.05499832  0.50695970
   0.86590148  0.05499837  0.50696059
   0.11595310  0.55469344  0.51753693
   0.61596951  0.55469335  0.51753696
Direct configuration=     8
   0.36591488  0.05480146  0.00000000
   0.86591488  0.05480146  0.00000000
   0.11591488  0.36214146  0.05822799
   0.61591488  0.36214146  0.05822799
   0.11591488  0.74746146  0.05822799
   0.61591488  0.74746146  0.05822799
   0.36591488  0.05480146  0.11645598
   0.86591488  0.05480146  0.11645598
   0.36591488  0.55480146  0.15111593
   0.86591488  0.55480146  0.15111593
   0.11591488  0.24746146  0.20934392
   0.61591488  0.24746146  0.20934392
   0.11591488  0.86214146  0.20934392
   0.61591488  0.86214146  0.20934392
   0.36591488  0.55480146  0.26757191
   0.86591488  0.55480146  0.26757191
   0.36592978  0.05476400  0.30208545
   0.86592621  0.05476856  0.30208534
   0.11596607  0.35902162  0.36042315
   0.61596938  0.35902165  0.36042317
   0.11598004  0.75058462  0.36042089
   0.61598334  0.75058466  0.36042092
   0.36591974  0.05475089  0.41677810
   0.86592036  0.05475621  0.41677904
   0.36592846  0.55476426  0.45309843
   0.86592853  0.55476422  0.45310188
   0.11596677  0.24066914  0.51560292
   0.61596935  0.24066915  0.51560291
   0.11596999  0.86881292  0.51560750
   0.61596978  0.86880939  0.51560623
   0.36592064  0.55476867  0.57052157
   0.86592054  0.55476872  0.57051247
   0.11591488  0.05480146  0.05822799
   0.61591488  0.05480146  0.05822799
   0.36591488  0.55480146  0.05822799
   0.86591488  0.55480146  0.05822799
   0.36591488  0.05480146  0.20934392
   0.86591488  0.05480146  0.20934392
   0.11591488  0.55480146  0.20934392
   0.61591488  0.55480146  0.20934392
   0.11589667  0.05487129  0.35982126
   0.61589381  0.05487124  0.35982127
   0.36590851  0.55477703  0.36045400
   0.86590852  0.55477703  0.36045068
   0.36589881  0.05491871  0.50778546
   0.86589873  0.05491875  0.50778612
   0.11595064  0.55472914  0.51635120
   0.61596452  0.55472916  0.51635122
Direct configuration=     9
   0.36591488  0.05480146  0.00000000
   0.86591488  0.05480146  0.00000000
   0.11591488  0.36214146  0.05822799
   0.61591488  0.36214146  0.05822799
   0.11591488  0.74746146  0.05822799
   0.61591488  0.74746146  0.05822799
   0.36591488  0.05480146  0.11645598
   0.86591488  0.05480146  0.11645598
   0.36591488  0.55480146  0.15111593
   0.86591488  0.55480146  0.15111593
   0.11591488  0.24746146  0.20934392
   0.61591488  0.24746146  0.20934392
   0.11591488  0.86214146  0.20934392
   0.61591488  0.86214146  0.20934392
   0.36591488  0.55480146  0.26757191
   0.86591488  0.55480146  0.26757191
   0.36592801  0.05475761  0.30198163
   0.86592459  0.05476271  0.30198154
   0.11597004  0.35916849  0.36040038
   0.61597311  0.35916856  0.36040041
   0.11598527  0.75044467  0.36039807
   0.61598903  0.75044487  0.36039799
   0.36591984  0.05474699  0.41664112
   0.86592079  0.05475339  0.41664230
   0.36593279  0.55475315  0.45335433
   0.86593275  0.55475334  0.45335581
   0.11597054  0.24085667  0.51618788
   0.61597501  0.24085664  0.51618798
   0.11596983  0.86863786  0.51619210
   0.61597104  0.86863463  0.51619065
   0.36592804  0.55475681  0.57090206
   0.86592797  0.55475689  0.57089818
   0.11591488  0.05480146  0.05822799
   0.61591488  0.05480146  0.05822799
   0.36591488  0.55480146  0.05822799
   0.86591488  0.55480146  0.05822799
   0.36591488  0.05480146  0.20934392
   0.86591488  0.05480146  0.20934392
   0.11591488  0.55480146  0.20934392
   0.61591488  0.55480146  0.20934392
   0.11589059  0.05486485  0.35945517
   0.61588810  0.05486478  0.35945528
   0.36591789  0.55478442  0.36060085
   0.86591853  0.55478571  0.36059867
   0.36590942  0.05490325  0.50747373
   0.86590917  0.05490306  0.50747447
   0.11595599  0.55474039  0.51650828
   0.61595071  0.55474018  0.51650830
Direct configuration=    10
   0.36591488  0.05480146  0.00000000
   0.86591488  0.05480146  0.00000000
   0.11591488  0.36214146  0.05822799
   0.61591488  0.36214146  0.05822799
   0.11591488  0.74746146  0.05822799
   0.61591488  0.74746146  0.05822799
   0.36591488  0.05480146  0.11645598
   0.86591488  0.05480146  0.11645598
   0.36591488  0.55480146  0.15111593
   0.86591488  0.55480146  0.15111593
   0.11591488  0.24746146  0.20934392
   0.61591488  0.24746146  0.20934392
   0.11591488  0.86214146  0.20934392
   0.61591488  0.86214146  0.20934392
   0.36591488  0.55480146  0.26757191
   0.86591488  0.55480146  0.26757191
   0.36592272  0.05473846  0.30167014
   0.86591972  0.05474517  0.30167013
   0.11598194  0.35960910  0.36033206
   0.61598430  0.35960930  0.36033212
   0.11600096  0.75002484  0.36032960
   0.61600610  0.75002550  0.36032919
   0.36592014  0.05473529  0.41623017
   0.86592208  0.05474494  0.41623207
   0.36594578  0.55471980  0.45412203
   0.86594541  0.55472070  0.45411762
   0.11598186  0.24141926  0.51794278
   0.61599199  0.24141911  0.51794318
   0.11596934  0.86811267  0.51794590
   0.61597479  0.86811036  0.51794391
   0.36595023  0.55472122  0.57204352
   0.86595023  0.55472139  0.57205531
   0.11591488  0.05480146  0.05822799
   0.61591488  0.05480146  0.05822799
   0.36591488  0.55480146  0.05822799
   0.86591488  0.55480146  0.05822799
   0.36591488  0.05480146  0.20934392
   0.86591488  0.05480146  0.20934392
   0.11591488  0.55480146  0.20934392
   0.61591488  0.55480146  0.20934392
   0.11587234  0.05484552  0.35835688
   0.61587097  0.05484541  0.35835730
   0.36594602  0.55480658  0.36104140
   0.86594853  0.55481178  0.36104263
   0.36594127  0.05485687  0.50653855
   0.86594049  0.05485596  0.50653953
   0.11597205  0.55477411  0.51697952
   0.61590927  0.55477324  0.51697954
Direct configuration=    11
   0.36591488  0.05480146  0.00000000
   0.86591488  0.05480146  0.00000000
   0.11591488  0.36214146  0.05822799
   0.61591488  0.36214146  0.05822799
   0.11591488  0.74746146  0.05822799
   0.61591488  0.74746146  0.05822799
   0.36591488  0.05480146  0.11645598
   0.86591488  0.05480146  0.11645598
   0.36591488  0.55480146  0.15111593
   0.86591488  0.55480146  0.15111593
   0.11591488  0.24746146  0.20934392
   0.61591488  0.24746146  0.20934392
   0.11591488  0.86214146  0.20934392
   0.61591488  0.86214146  0.20934392
   0.36591488  0.55480146  0.26757191
   0.86591488  0.55480146  0.26757191
   0.36591212  0.05470017  0.30104717
   0.86590999  0.05471008  0.30104732
   0.11600575  0.36049033  0.36019541
   0.61600667  0.36049078  0.36019555
   0.11603233  0.74918517  0.36019266
   0.61604025  0.74918677  0.36019159
   0.36592073  0.05471189  0.41540828
   0.86592465  0.05472803  0.41541163
   0.36597176  0.55465310  0.45565742
   0.86597072  0.55465542  0.45564123
   0.11600449  0.24254443  0.52145257
   0.61602594  0.24254405  0.52145359
   0.11596838  0.86706230  0.52145352
   0.61598231  0.86706180  0.52145044
   0.36599461  0.55465004  0.57432644
   0.86599477  0.55465041  0.57436959
   0.11591488  0.05480146  0.05822799
   0.61591488  0.05480146  0.05822799
   0.36591488  0.55480146  0.05822799
   0.86591488  0.55480146  0.05822799
   0.36591488  0.05480146  0.20934392
   0.86591488  0.05480146  0.20934392
   0.11591488  0.55480146  0.20934392
   0.61591488  0.55480146  0.20934392
   0.11583584  0.05480687  0.35616031
   0.61583669  0.05480668  0.35616133
   0.36600230  0.55485091  0.36192250
   0.86600855  0.55486392  0.36193057
   0.36600497  0.05476411  0.50466819
   0.86600314  0.05476178  0.50466963
   0.11600417  0.55484156  0.51792199
   0.61582639  0.55483936  0.51792201
Direct configuration=    12
   0.36591488  0.05480146  0.00000000
   0.86591488  0.05480146  0.00000000
   0.11591488  0.36214146  0.05822799
   0.61591488  0.36214146  0.05822799
   0.11591488  0.74746146  0.05822799
   0.61591488  0.74746146  0.05822799
   0.36591488  0.05480146  0.11645598
   0.86591488  0.05480146  0.11645598
   0.36591488  0.55480146  0.15111593
   0.86591488  0.55480146  0.15111593
   0.11591488  0.24746146  0.20934392
   0.61591488  0.24746146  0.20934392
   0.11591488  0.86214146  0.20934392
   0.61591488  0.86214146  0.20934392
   0.36591488  0.55480146  0.26757191
   0.86591488  0.55480146  0.26757191
   0.36591790  0.05472108  0.30138729
   0.86591531  0.05472924  0.30138735
   0.11599275  0.36000922  0.36027001
   0.61599446  0.36000953  0.36027011
   0.11601520  0.74964359  0.36026743
   0.61602161  0.74964468  0.36026671
   0.36592040  0.05472466  0.41585700
   0.86592325  0.05473726  0.41585956
   0.36595758  0.55468951  0.45481916
   0.86595690  0.55469106  0.45480940
   0.11599214  0.24193013  0.51953637
   0.61600740  0.24192988  0.51953705
   0.11596891  0.86763576  0.51953851
   0.61597821  0.86763427  0.51953602
   0.36597038  0.55468890  0.57308006
   0.86597045  0.55468916  0.57310609
   0.11591488  0.05480146  0.05822799
   0.61591488  0.05480146  0.05822799
   0.36591488  0.55480146  0.05822799
   0.86591488  0.55480146  0.05822799
   0.36591488  0.05480146  0.20934392
   0.86591488  0.05480146  0.20934392
   0.11591488  0.55480146  0.20934392
   0.61591488  0.55480146  0.20934392
   0.11585576  0.05482797  0.35735954
   0.61585540  0.05482783  0.35736023
   0.36597157  0.55482671  0.36144146
   0.86597578  0.55483546  0.36144580
   0.36597019  0.05481476  0.50568933
   0.86596894  0.05481320  0.50569052
   0.11598664  0.55480474  0.51740744
   0.61587164  0.55480326  0.51740746
Direct configuration=    13
   0.36591488  0.05480146  0.00000000
   0.86591488  0.05480146  0.00000000
   0.11591488  0.36214146  0.05822799
   0.61591488  0.36214146  0.05822799
   0.11591488  0.74746146  0.05822799
   0.61591488  0.74746146  0.05822799
   0.36591488  0.05480146  0.11645598
   0.86591488  0.05480146  0.11645598
   0.36591488  0.55480146  0.15111593
   0.86591488  0.55480146  0.15111593
   0.11591488  0.24746146  0.20934392
   0.61591488  0.24746146  0.20934392
   0.11591488  0.86214146  0.20934392
   0.61591488  0.86214146  0.20934392
   0.36591488  0.55480146  0.26757191
   0.86591488  0.55480146  0.26757191
   0.36590373  0.05471911  0.30116809
   0.86590222  0.05472715  0.30116815
   0.11600360  0.36036526  0.36028731
   0.61600301  0.36036600  0.36028744
   0.11601927  0.74929302  0.36028557
   0.61602029  0.74929306  0.36028484
   0.36591374  0.05472492  0.41580826
   0.86591713  0.05473906  0.41580959
   0.36595857  0.55468683  0.45489790
   0.86595822  0.55468863  0.45489949
   0.11600518  0.24133508  0.51998945
   0.61601895  0.24133454  0.51999020
   0.11598121  0.86824348  0.51999056
   0.61599038  0.86824221  0.51998805
   0.36596717  0.55468695  0.57344915
   0.86596894  0.55468772  0.57347007
   0.11591488  0.05480146  0.05822799
   0.61591488  0.05480146  0.05822799
   0.36591488  0.55480146  0.05822799
   0.86591488  0.55480146  0.05822799
   0.36591488  0.05480146  0.20934392
   0.86591488  0.05480146  0.20934392
   0.11591488  0.55480146  0.20934392
   0.61591488  0.55480146  0.20934392
   0.11585701  0.05481688  0.35701029
   0.61586095  0.05481701  0.35701123
   0.36598511  0.55482435  0.36166448
   0.86598660  0.55483173  0.36166723
   0.36598365  0.05478651  0.50618164
   0.86598348  0.05478399  0.50618190
   0.11596495  0.55480347  0.51764152
   0.61591454  0.55480647  0.51764040
Direct configuration=    14
   0.36591488  0.05480146  0.00000000
   0.86591488  0.05480146  0.00000000
   0.11591488  0.36214146  0.05822799
   0.61591488  0.36214146  0.05822799
   0.11591488  0.74746146  0.05822799
   0.61591488  0.74746146  0.05822799
   0.36591488  0.05480146  0.11645598
   0.86591488  0.05480146  0.11645598
   0.36591488  0.55480146  0.15111593
   0.86591488  0.55480146  0.15111593
   0.11591488  0.24746146  0.20934392
   0.61591488  0.24746146  0.20934392
   0.11591488  0.86214146  0.20934392
   0.61591488  0.86214146  0.20934392
   0.36591488  0.55480146  0.26757191
   0.86591488  0.55480146  0.26757191
   0.36588242  0.05471617  0.30083863
   0.86588254  0.05472402  0.30083868
   0.11601991  0.36090040  0.36031331
   0.61601587  0.36090177  0.36031348
   0.11602539  0.74876610  0.36031283
   0.61601832  0.74876458  0.36031207
   0.36590372  0.05472532  0.41573501
   0.86590793  0.05474177  0.41573450
   0.36596006  0.55468280  0.45501624
   0.86596021  0.55468498  0.45503489
   0.11602479  0.24044070  0.52067043
   0.61603630  0.24043973  0.52067129
   0.11599971  0.86915689  0.52066999
   0.61600868  0.86915595  0.52066745
   0.36596234  0.55468402  0.57400390
   0.86596667  0.55468555  0.57401712
   0.11591488  0.05480146  0.05822799
   0.61591488  0.05480146  0.05822799
   0.36591488  0.55480146  0.05822799
   0.86591488  0.55480146  0.05822799
   0.36591488  0.05480146  0.20934392
   0.86591488  0.05480146  0.20934392
   0.11591488  0.55480146  0.20934392
   0.61591488  0.55480146  0.20934392
   0.11585887  0.05480022  0.35648536
   0.61586928  0.05480075  0.35648667
   0.36600545  0.55482081  0.36199968
   0.86600286  0.55482614  0.36200005
   0.36600387  0.05474407  0.50692159
   0.86600533  0.05474009  0.50692045
   0.11593237  0.55480156  0.51799334
   0.61597903  0.55481128  0.51799052
Direct configuration=    15
   0.36591488  0.05480146  0.00000000
   0.86591488  0.05480146  0.00000000
   0.11591488  0.36214146  0.05822799
   0.61591488  0.36214146  0.05822799
   0.11591488  0.74746146  0.05822799
   0.61591488  0.74746146  0.05822799
   0.36591488  0.05480146  0.11645598
   0.86591488  0.05480146  0.11645598
   0.36591488  0.55480146  0.15111593
   0.86591488  0.55480146  0.15111593
   0.11591488  0.24746146  0.20934392
   0.61591488  0.24746146  0.20934392
   0.11591488  0.86214146  0.20934392
   0.61591488  0.86214146  0.20934392
   0.36591488  0.55480146  0.26757191
   0.86591488  0.55480146  0.26757191
   0.36587823  0.05472009  0.30068154
   0.86587718  0.05472713  0.30068060
   0.11602915  0.36078552  0.36034440
   0.61603124  0.36078558  0.36034457
   0.11603464  0.74885335  0.36034568
   0.61603260  0.74885305  0.36034497
   0.36590249  0.05472838  0.41608980
   0.86590562  0.05474413  0.41608934
   0.36596977  0.55469202  0.45523844
   0.86596853  0.55469454  0.45525031
   0.11604364  0.24040593  0.52105111
   0.61605626  0.24040657  0.52105234
   0.11602076  0.86914160  0.52105466
   0.61602969  0.86914240  0.52105222
   0.36596433  0.55468099  0.57420744
   0.86596623  0.55468350  0.57423932
   0.11591488  0.05480146  0.05822799
   0.61591488  0.05480146  0.05822799
   0.36591488  0.55480146  0.05822799
   0.86591488  0.55480146  0.05822799
   0.36591488  0.05480146  0.20934392
   0.86591488  0.05480146  0.20934392
   0.11591488  0.55480146  0.20934392
   0.61591488  0.55480146  0.20934392
   0.11587103  0.05483349  0.35670645
   0.61587154  0.05483391  0.35670784
   0.36600092  0.55482438  0.36201409
   0.86600044  0.55482820  0.36201716
   0.36599842  0.05478427  0.50726256
   0.86600006  0.05477987  0.50726124
   0.11595718  0.55478835  0.51833023
   0.61594100  0.55479498  0.51832751
Direct configuration=    16
   0.36591488  0.05480146  0.00000000
   0.86591488  0.05480146  0.00000000
   0.11591488  0.36214146  0.05822799
   0.61591488  0.36214146  0.05822799
   0.11591488  0.74746146  0.05822799
   0.61591488  0.74746146  0.05822799
   0.36591488  0.05480146  0.11645598
   0.86591488  0.05480146  0.11645598
   0.36591488  0.55480146  0.15111593
   0.86591488  0.55480146  0.15111593
   0.11591488  0.24746146  0.20934392
   0.61591488  0.24746146  0.20934392
   0.11591488  0.86214146  0.20934392
   0.61591488  0.86214146  0.20934392
   0.36591488  0.55480146  0.26757191
   0.86591488  0.55480146  0.26757191
   0.36586566  0.05473185  0.30021028
   0.86586111  0.05473646  0.30020638
   0.11605688  0.36044087  0.36043767
   0.61607736  0.36043699  0.36043784
   0.11606239  0.74911507  0.36044423
   0.61607545  0.74911846  0.36044365
   0.36589882  0.05473755  0.41715418
   0.86589869  0.05475120  0.41715387
   0.36599889  0.55471969  0.45590504
   0.86599350  0.55472321  0.45589657
   0.11610019  0.24030162  0.52219317
   0.61611615  0.24030709  0.52219547
   0.11608390  0.86909571  0.52220866
   0.61609272  0.86910174  0.52220652
   0.36597032  0.55467192  0.57481804
   0.86596489  0.55467736  0.57490592
   0.11591488  0.05480146  0.05822799
   0.61591488  0.05480146  0.05822799
   0.36591488  0.55480146  0.05822799
   0.86591488  0.55480146  0.05822799
   0.36591488  0.05480146  0.20934392
   0.86591488  0.05480146  0.20934392
   0.11591488  0.55480146  0.20934392
   0.61591488  0.55480146  0.20934392
   0.11590748  0.05493332  0.35736970
   0.61587835  0.05493340  0.35737137
   0.36598732  0.55483507  0.36205730
   0.86599318  0.55483438  0.36206851
   0.36598207  0.05490490  0.50828550
   0.86598424  0.05489922  0.50828364
   0.11603161  0.55474873  0.51934088
   0.61582693  0.55474607  0.51933850
Direct configuration=    17
   0.36591488  0.05480146  0.00000000
   0.86591488  0.05480146  0.00000000
   0.11591488  0.36214146  0.05822799
   0.61591488  0.36214146  0.05822799