 running on   24 total cores
 distrk:  each k-point on   24 cores,    1 groups
 distr:  one band on    6 cores,    4 groups
 using from now: INCAR     
vasp.5.4.1 08Jul2015 (build Apr 24 2014 00:09:29) complex standard with constrain (TS)    
 POSCAR found type information on POSCAR  O  Ti
 POSCAR found :  2 types and      48 ions
 scaLAPACK will be used
 LDA part: xc-table for Pade appr. of Perdew
 POSCAR, INCAR and KPOINTS ok, starting setup
 FFT: planning ...
 WAVECAR not read
 entering main loop
       N       E                     dE             d eps       ncg     rms          rms(c)
DAV:   1     0.352020383291E+04    0.35202E+04   -0.10044E+05  7200   0.126E+03
DAV:   2     0.679583964306E+03   -0.28406E+04   -0.26132E+04  7520   0.329E+02
DAV:   3    -0.453691702097E+03   -0.11333E+04   -0.10751E+04  8992   0.209E+02
DAV:   4    -0.546250285288E+03   -0.92559E+02   -0.91963E+02  9256   0.727E+01
DAV:   5    -0.549192344904E+03   -0.29421E+01   -0.29375E+01  9668   0.145E+01    0.121E+02
RMM:   6    -0.337511105731E+03    0.21168E+03   -0.97845E+02  7231   0.654E+01    0.527E+01
RMM:   7    -0.380417619001E+03   -0.42907E+02   -0.19880E+02  7201   0.309E+01    0.486E+01
RMM:   8    -0.344949342083E+03    0.35468E+02   -0.16055E+01  7206   0.106E+01    0.244E+01
RMM:   9    -0.345747469884E+03   -0.79813E+00   -0.38484E+01  7240   0.102E+01    0.161E+01
RMM:  10    -0.350519642513E+03   -0.47722E+01   -0.39278E+00  7215   0.440E+00    0.122E+01
RMM:  11    -0.371067362636E+03   -0.20548E+02   -0.10296E+01  7203   0.722E+00    0.920E+00
RMM:  12    -0.395994128218E+03   -0.24927E+02   -0.21290E+01  7200   0.913E+00    0.655E+00
RMM:  13    -0.410588512587E+03   -0.14594E+02   -0.20804E+01  7200   0.766E+00    0.496E+00
RMM:  14    -0.414760755339E+03   -0.41722E+01   -0.74357E+00  7214   0.437E+00    0.283E+00
RMM:  15    -0.415913048171E+03   -0.11523E+01   -0.18423E+00  7379   0.254E+00    0.123E+00
RMM:  16    -0.416061282173E+03   -0.14823E+00   -0.14203E-01  7335   0.837E-01    0.722E-01
RMM:  17    -0.416128274545E+03   -0.66992E-01   -0.36209E-02  7264   0.370E-01    0.437E-01
RMM:  18    -0.416187668985E+03   -0.59394E-01   -0.22488E-02  7217   0.315E-01    0.215E-01
RMM:  19    -0.416205525627E+03   -0.17857E-01   -0.32758E-03  7116   0.119E-01    0.143E-01
RMM:  20    -0.416213647245E+03   -0.81216E-02   -0.17660E-03  6613   0.776E-02    0.831E-02
RMM:  21    -0.416220596865E+03   -0.69496E-02   -0.29616E-03  6546   0.861E-02    0.861E-02
RMM:  22    -0.416222304384E+03   -0.17075E-02   -0.48963E-04  5226   0.351E-02    0.508E-02
RMM:  23    -0.416223010194E+03   -0.70581E-03   -0.41917E-04  5045   0.318E-02    0.208E-02
RMM:  24    -0.416223377339E+03   -0.36714E-03   -0.15704E-04  4543   0.212E-02    0.217E-02
RMM:  25    -0.416223563997E+03   -0.18666E-03   -0.10499E-04  4292   0.159E-02    0.159E-02
RMM:  26    -0.416223669732E+03   -0.10574E-03   -0.42373E-05  3663   0.101E-02    0.117E-02
RMM:  27    -0.416223801965E+03   -0.13223E-03   -0.35936E-05  3322   0.897E-03    0.500E-03
RMM:  28    -0.416223892855E+03   -0.90890E-04   -0.25156E-05  2532   0.716E-03
 A1 parameter for BJ-Damping is not reasonable. Taking default.
   1 F= -.42606830E+03 E0= -.42606830E+03  d E =-.426068E+03  mag=     0.0010
 curvature:   0.00 expect dE= 0.000E+00 dE for cont linesearch  0.000E+00
 trial: gam= 0.00000 g(F)=  0.724E+00 g(S)=  0.000E+00 ort = 0.000E+00 (trialstep = 0.100E+01)
 search vector abs. value=  0.724E+00
 bond charge predicted
       N       E                     dE             d eps       ncg     rms          rms(c)
DAV:   1    -0.416837480584E+03   -0.61368E+00   -0.19936E+01  7200   0.108E+01    0.145E+00
RMM:   2    -0.416881696950E+03   -0.44216E-01   -0.74585E-01  7138   0.218E+00    0.172E+00
RMM:   3    -0.416876604554E+03    0.50924E-02   -0.38493E-02  7316   0.452E-01    0.147E+00
RMM:   4    -0.416872555328E+03    0.40492E-02   -0.18555E-02  7005   0.267E-01    0.103E+00
RMM:   5    -0.416866212109E+03    0.63432E-02   -0.28059E-02  7006   0.341E-01    0.338E-01
RMM:   6    -0.416865605559E+03    0.60655E-03   -0.29520E-03  6396   0.101E-01    0.256E-01
RMM:   7    -0.416865193337E+03    0.41222E-03   -0.31502E-04  4782   0.367E-02    0.187E-01
RMM:   8    -0.416864941933E+03    0.25140E-03   -0.15641E-03  6189   0.748E-02    0.359E-02
RMM:   9    -0.416864974022E+03   -0.32090E-04   -0.10396E-04  4120   0.273E-02
 A1 parameter for BJ-Damping is not reasonable. Taking default.
   2 F= -.42670837E+03 E0= -.42670837E+03  d E =-.640067E+00  mag=     0.0003
 trial-energy change:   -0.640067  1 .order   -0.637883   -0.723918   -0.551847
 step:   3.5280(harm=  4.2071)  dis= 0.08009  next Energy=  -427.441173 (dE=-0.137E+01)
 bond charge predicted
       N       E                     dE             d eps       ncg     rms          rms(c)
DAV:   1    -0.417442090786E+03   -0.57715E+00   -0.12718E+02  7200   0.258E+01    0.405E+00
RMM:   2    -0.417740821058E+03   -0.29873E+00   -0.54163E+00  7200   0.576E+00    0.522E+00
RMM:   3    -0.417716337242E+03    0.24484E-01   -0.28477E-01  7434   0.119E+00    0.480E+00
RMM:   4    -0.417659142064E+03    0.57195E-01   -0.16426E-01  7160   0.770E-01    0.301E+00
RMM:   5    -0.417636554001E+03    0.22588E-01   -0.29077E-01  7162   0.111E+00    0.140E+00
RMM:   6    -0.417625961713E+03    0.10592E-01   -0.33767E-02  7080   0.343E-01    0.125E+00
RMM:   7    -0.417615661954E+03    0.10300E-01   -0.74345E-03  6770   0.173E-01    0.829E-01
RMM:   8    -0.417609823297E+03    0.58387E-02   -0.33721E-02  6981   0.357E-01    0.123E-01
RMM:   9    -0.417610024901E+03   -0.20160E-03   -0.15816E-03  6484   0.981E-02    0.608E-02
RMM:  10    -0.417610135011E+03   -0.11011E-03   -0.19802E-04  4632   0.312E-02    0.442E-02
RMM:  11    -0.417610375638E+03   -0.24063E-03   -0.12119E-04  4313   0.236E-02    0.284E-02
RMM:  12    -0.417610498397E+03   -0.12276E-03   -0.11021E-04  4184   0.227E-02    0.298E-02
RMM:  13    -0.417610562884E+03   -0.64486E-04   -0.34141E-05  3630   0.137E-02
 A1 parameter for BJ-Damping is not reasonable. Taking default.
   3 F= -.42745104E+03 E0= -.42745104E+03  d E =-.138274E+01  mag=     0.0000
 curvature:  -2.01 expect dE=-0.257E+00 dE for cont linesearch -0.222E-03
 trial: gam= 0.16445 g(F)=  0.128E+00 g(S)=  0.000E+00 ort = 0.894E-02 (trialstep = 0.151E+01)
 search vector abs. value=  0.151E+00
 bond charge predicted
       N       E                     dE             d eps       ncg     rms          rms(c)
DAV:   1    -0.417760196940E+03   -0.14970E+00   -0.87445E+00  7208   0.685E+00    0.926E-01
RMM:   2    -0.417776274599E+03   -0.16078E-01   -0.27098E-01  7132   0.134E+00    0.863E-01
RMM:   3    -0.417772725324E+03    0.35493E-02   -0.12880E-02  7086   0.287E-01    0.621E-01
RMM:   4    -0.417769889213E+03    0.28361E-02   -0.10911E-02  7015   0.209E-01    0.250E-01
RMM:   5    -0.417769236578E+03    0.65263E-03   -0.34893E-03  6904   0.129E-01    0.945E-02
RMM:   6    -0.417769286330E+03   -0.49752E-04   -0.16379E-04  4611   0.284E-02
 A1 parameter for BJ-Damping is not reasonable. Taking default.
   4 F= -.42761375E+03 E0= -.42761375E+03  d E =-.162707E+00  mag=     0.0000
 trial-energy change:   -0.162707  1 .order   -0.161741   -0.194921   -0.128560
 step:   3.8856(harm=  4.4224)  dis= 0.03925  next Energy=  -427.719178 (dE=-0.268E+00)
 bond charge predicted
       N       E                     dE             d eps       ncg     rms          rms(c)
DAV:   1    -0.417853234090E+03   -0.83998E-01   -0.22015E+01  7200   0.108E+01    0.157E+00
RMM:   2    -0.417893548739E+03   -0.40315E-01   -0.69485E-01  7140   0.213E+00    0.142E+00
RMM:   3    -0.417884006424E+03    0.95423E-02   -0.34132E-02  7178   0.465E-01    0.100E+00
RMM:   4    -0.417876992446E+03    0.70140E-02   -0.29212E-02  7132   0.344E-01    0.393E-01
RMM:   5    -0.417875367465E+03    0.16250E-02   -0.85121E-03  7062   0.203E-01    0.155E-01
RMM:   6    -0.417875512081E+03   -0.14462E-03   -0.51663E-04  5813   0.469E-02    0.110E-01
RMM:   7    -0.417875715007E+03   -0.20293E-03   -0.39193E-04  5565   0.455E-02    0.506E-02
RMM:   8    -0.417876015259E+03   -0.30025E-03   -0.23584E-04  4812   0.366E-02    0.365E-02
RMM:   9    -0.417876073290E+03   -0.58031E-04   -0.36168E-05  4034   0.175E-02
 A1 parameter for BJ-Damping is not reasonable. Taking default.
   5 F= -.42772674E+03 E0= -.42772674E+03  d E =-.275697E+00  mag=     0.0000
 curvature:  -2.48 expect dE=-0.113E+00 dE for cont linesearch -0.944E-03
 trial: gam= 0.22385 g(F)=  0.457E-01 g(S)=  0.000E+00 ort = 0.757E-02 (trialstep = 0.198E+01)
 search vector abs. value=  0.566E-01
 bond charge predicted
       N       E                     dE             d eps       ncg     rms          rms(c)
DAV:   1    -0.417922878778E+03   -0.46864E-01   -0.10656E+01  7200   0.728E+00    0.112E+00
RMM:   2    -0.417947768869E+03   -0.24890E-01   -0.38540E-01  7135   0.145E+00    0.146E+00
RMM:   3    -0.417946055929E+03    0.17129E-02   -0.15669E-02  7201   0.303E-01    0.141E+00
RMM:   4    -0.417945119096E+03    0.93683E-03   -0.18111E-03  6546   0.928E-02    0.118E+00
RMM:   5    -0.417943221642E+03    0.18975E-02   -0.26308E-02  7092   0.335E-01    0.482E-01
RMM:   6    -0.417942302913E+03    0.91873E-03   -0.18704E-03  6666   0.918E-02    0.341E-01
RMM:   7    -0.417941865658E+03    0.43725E-03   -0.24717E-04  4766   0.376E-02    0.225E-01
RMM:   8    -0.417941569432E+03    0.29623E-03   -0.13865E-03  6291   0.750E-02    0.379E-02
RMM:   9    -0.417941573051E+03   -0.36192E-05   -0.42615E-05  3881   0.191E-02
 A1 parameter for BJ-Damping is not reasonable. Taking default.
   6 F= -.42778890E+03 E0= -.42778890E+03  d E =-.621618E-01  mag=     0.0000
 trial-energy change:   -0.062162  1 .order   -0.062203   -0.093897   -0.030509
 step:   2.9353(harm=  2.9353)  dis= 0.01743  next Energy=  -427.796283 (dE=-0.695E-01)
 bond charge predicted
       N       E                     dE             d eps       ncg     rms          rms(c)
DAV:   1    -0.417946838064E+03   -0.52686E-02   -0.24712E+00  7200   0.351E+00    0.506E-01
RMM:   2    -0.417952686066E+03   -0.58480E-02   -0.89184E-02  7018   0.692E-01    0.673E-01
RMM:   3    -0.417952196239E+03    0.48983E-03   -0.35296E-03  6672   0.145E-01    0.637E-01
RMM:   4    -0.417951934092E+03    0.26215E-03   -0.52071E-04  5536   0.505E-02    0.496E-01
RMM:   5    -0.417951464889E+03    0.46920E-03   -0.48757E-03  6698   0.142E-01    0.187E-01
RMM:   6    -0.417951309898E+03    0.15499E-03   -0.31110E-04  4977   0.400E-02    0.133E-01
RMM:   7    -0.417951238865E+03    0.71032E-04   -0.64430E-05  3788   0.224E-02
 A1 parameter for BJ-Damping is not reasonable. Taking default.
   7 F= -.42779695E+03 E0= -.42779695E+03  d E =-.702095E-01  mag=     0.0000
 curvature:  -1.75 expect dE=-0.389E-01 dE for cont linesearch -0.147E-04
 trial: gam= 0.51344 g(F)=  0.222E-01 g(S)=  0.000E+00 ort = 0.688E-03 (trialstep = 0.217E+01)
 search vector abs. value=  0.378E-01
 bond charge predicted
       N       E                     dE             d eps       ncg     rms          rms(c)
DAV:   1    -0.417980510089E+03   -0.29200E-01   -0.74665E+00  7200   0.651E+00    0.472E-01
RMM:   2    -0.417996099751E+03   -0.15590E-01   -0.20006E-01  7114   0.112E+00    0.394E-01
RMM:   3    -0.417994975817E+03    0.11239E-02   -0.85816E-03  7050   0.253E-01    0.305E-01
RMM:   4    -0.417993898346E+03    0.10775E-02   -0.24897E-03  6814   0.110E-01    0.169E-01
RMM:   5    -0.417993519349E+03    0.37900E-03   -0.16689E-03  6832   0.914E-02    0.447E-02
RMM:   6    -0.417993517625E+03    0.17237E-05   -0.61110E-05  4205   0.212E-02
 A1 parameter for BJ-Damping is not reasonable. Taking default.
   8 F= -.42783710E+03 E0= -.42783710E+03  d E =-.401506E-01  mag=     0.0000
 trial-energy change:   -0.040151  1 .order   -0.040258   -0.048987   -0.031529
 step:   6.0954(harm=  6.0954)  dis= 0.03244  next Energy=  -427.865674 (dE=-0.687E-01)
 bond charge predicted
       N       E                     dE             d eps       ncg     rms          rms(c)
DAV:   1    -0.417982460259E+03    0.11059E-01   -0.24306E+01  7200   0.117E+01    0.850E-01
RMM:   2    -0.418032252831E+03   -0.49793E-01   -0.64389E-01  7138   0.199E+00    0.693E-01
RMM:   3    -0.418028743586E+03    0.35092E-02   -0.28049E-02  7202   0.454E-01    0.539E-01
RMM:   4    -0.418025422374E+03    0.33212E-02   -0.78017E-03  7046   0.193E-01    0.299E-01
RMM:   5    -0.418024294645E+03    0.11277E-02   -0.53769E-03  7050   0.162E-01    0.842E-02
RMM:   6    -0.418024309895E+03   -0.15251E-04   -0.20834E-04  4809   0.366E-02
 A1 parameter for BJ-Damping is not reasonable. Taking default.
   9 F= -.42786404E+03 E0= -.42786404E+03  d E =-.670906E-01  mag=     0.0000
 curvature:  -5.11 expect dE=-0.714E-01 dE for cont linesearch -0.136E-04
 trial: gam= 0.65526 g(F)=  0.140E-01 g(S)=  0.000E+00 ort =-0.318E-03 (trialstep = 0.296E+01)
 search vector abs. value=  0.298E-01
 bond charge predicted
       N       E                     dE             d eps       ncg     rms          rms(c)
DAV:   1    -0.418036638119E+03   -0.12343E-01   -0.10944E+01  7200   0.757E+00    0.643E-01
RMM:   2    -0.418056627250E+03   -0.19989E-01   -0.31261E-01  7140   0.138E+00    0.705E-01
RMM:   3    -0.418054711237E+03    0.19160E-02   -0.15412E-02  7246   0.316E-01    0.561E-01
RMM:   4    -0.418053281629E+03    0.14296E-02   -0.37572E-03  6870   0.126E-01    0.386E-01
RMM:   5    -0.418052157166E+03    0.11245E-02   -0.61248E-03  7018   0.170E-01    0.126E-01
RMM:   6    -0.418052090249E+03    0.66917E-04   -0.47410E-04  5782   0.478E-02
 A1 parameter for BJ-Damping is not reasonable. Taking default.
  10 F= -.42788589E+03 E0= -.42788589E+03  d E =-.218546E-01  mag=     0.0000
 trial-energy change:   -0.021855  1 .order   -0.021506   -0.040653   -0.002358
 step:   3.1390(harm=  3.1390)  dis= 0.01763  next Energy=  -427.885616 (dE=-0.216E-01)
 bond charge predicted
       N       E                     dE             d eps       ncg     rms          rms(c)
DAV:   1    -0.418052440806E+03   -0.28364E-03   -0.43321E-02  7584   0.484E-01    0.587E-02
RMM:   2    -0.418052573643E+03   -0.13284E-03   -0.15872E-03  6318   0.975E-02    0.474E-02
RMM:   3    -0.418052582206E+03   -0.85630E-05   -0.87913E-05  4145   0.278E-02
 A1 parameter for BJ-Damping is not reasonable. Taking default.
  11 F= -.42788602E+03 E0= -.42788602E+03  d E =-.219813E-01  mag=     0.0000
 curvature:  -3.40 expect dE=-0.989E-02 dE for cont linesearch -0.177E-07
 trial: gam= 0.15486 g(F)=  0.291E-02 g(S)=  0.000E+00 ort = 0.125E-04 (trialstep = 0.299E+01)
 search vector abs. value=  0.363E-02
 bond charge predicted
       N       E                     dE             d eps       ncg     rms          rms(c)
DAV:   1    -0.418060015096E+03   -0.74415E-02   -0.13629E+00  7200   0.269E+00    0.280E-01
RMM:   2    -0.418063016049E+03   -0.30010E-02   -0.41396E-02  7016   0.505E-01    0.342E-01
RMM:   3    -0.418062785676E+03    0.23037E-03   -0.18197E-03  6347   0.108E-01    0.297E-01
RMM:   4    -0.418062640842E+03    0.14483E-03   -0.36917E-04  4985   0.433E-02    0.183E-01
RMM:   5    -0.418062510491E+03    0.13035E-03   -0.10627E-03  6125   0.723E-02    0.672E-02
RMM:   6    -0.418062490433E+03    0.20058E-04   -0.69240E-05  3828   0.208E-02
 A1 parameter for BJ-Damping is not reasonable. Taking default.
  12 F= -.42789303E+03 E0= -.42789303E+03  d E =-.701073E-02  mag=     0.0000
 trial-energy change:   -0.007011  1 .order   -0.006881   -0.008712   -0.005050
 step:   7.1225(harm=  7.1225)  dis= 0.01148  next Energy=  -427.896383 (dE=-0.104E-01)
 bond charge predicted
       N       E                     dE             d eps       ncg     rms          rms(c)
DAV:   1    -0.418065340721E+03   -0.28302E-02   -0.25998E+00  7200   0.372E+00    0.393E-01
RMM:   2    -0.418071175911E+03   -0.58352E-02   -0.80392E-02  7048   0.704E-01    0.475E-01
RMM:   3    -0.418070710019E+03    0.46589E-03   -0.35523E-03  6799   0.152E-01    0.405E-01
RMM:   4    -0.418070453558E+03    0.25646E-03   -0.76461E-04  5933   0.596E-02    0.250E-01
RMM:   5    -0.418070193254E+03    0.26030E-03   -0.20133E-03  6495   0.978E-02    0.913E-02
RMM:   6    -0.418070148500E+03    0.44754E-04   -0.13177E-04  4239   0.262E-02
 A1 parameter for BJ-Damping is not reasonable. Taking default.
  13 F= -.42789669E+03 E0= -.42789669E+03  d E =-.106740E-01  mag=     0.0000
 curvature:  -4.44 expect dE=-0.113E-01 dE for cont linesearch -0.125E-05
 trial: gam= 0.88272 g(F)=  0.255E-02 g(S)=  0.000E+00 ort = 0.320E-04 (trialstep = 0.255E+01)
 search vector abs. value=  0.543E-02
 bond charge predicted
       N       E                     dE             d eps       ncg     rms          rms(c)
DAV:   1    -0.418076806394E+03   -0.66131E-02   -0.13225E+00  7200   0.255E+00    0.224E-01
RMM:   2    -0.418079826526E+03   -0.30201E-02   -0.35010E-02  6844   0.429E-01    0.154E-01
RMM:   3    -0.418079710629E+03    0.11590E-03   -0.16543E-03  5989   0.993E-02    0.113E-01
RMM:   4    -0.418079612048E+03    0.98581E-04   -0.36467E-04  4723   0.438E-02
 A1 parameter for BJ-Damping is not reasonable. Taking default.
  14 F= -.42790252E+03 E0= -.42790252E+03  d E =-.582961E-02  mag=     0.0000
 ZBRENT: can't locate minimum, use default step
 trial-energy change:   -0.005830  1 .order   -0.005919   -0.006575   -0.005264
 step:  10.1962(harm= 12.7787)  dis= 0.02113  next Energy=  -427.913174 (dE=-0.165E-01)
 bond charge predicted
       N       E                     dE             d eps       ncg     rms          rms(c)
DAV:   1    -0.418073563871E+03    0.61468E-02   -0.11802E+01  7200   0.760E+00    0.648E-01
RMM:   2    -0.418100296425E+03   -0.26733E-01   -0.30815E-01  7102   0.127E+00    0.451E-01
RMM:   3    -0.418099398645E+03    0.89778E-03   -0.14331E-02  7106   0.291E-01    0.341E-01
RMM:   4    -0.418098473137E+03    0.92551E-03   -0.34181E-03  6799   0.127E-01    0.205E-01
RMM:   5    -0.418098092308E+03    0.38083E-03   -0.21544E-03  6671   0.988E-02    0.580E-02
RMM:   6    -0.418098050945E+03    0.41363E-04   -0.92851E-05  4035   0.242E-02
 A1 parameter for BJ-Damping is not reasonable. Taking default.
  15 F= -.42791007E+03 E0= -.42791007E+03  d E =-.133781E-01  mag=     0.0000
 curvature: -12.60 expect dE=-0.475E-01 dE for cont linesearch -0.508E-06
 trial: gam= 1.52905 g(F)=  0.377E-02 g(S)=  0.000E+00 ort =-0.148E-04 (trialstep = 0.135E+01)
 search vector abs. value=  0.164E-01
 bond charge predicted
       N       E                     dE             d eps       ncg     rms          rms(c)
DAV:   1    -0.418105019542E+03   -0.69272E-02   -0.85986E-01  7200   0.204E+00    0.222E-01
RMM:   2    -0.418106583376E+03   -0.15638E-02   -0.21851E-02  6974   0.335E-01    0.153E-01
RMM:   3    -0.418106447790E+03    0.13559E-03   -0.13649E-03  6081   0.839E-02    0.994E-02
RMM:   4    -0.418106353539E+03    0.94251E-04   -0.44231E-04  4933   0.470E-02
 A1 parameter for BJ-Damping is not reasonable. Taking default.
  16 F= -.42791442E+03 E0= -.42791442E+03  d E =-.435023E-02  mag=     0.0000
 trial-energy change:   -0.004350  1 .order   -0.004365   -0.005052   -0.003679
 step:   4.9640(harm=  4.9640)  dis= 0.01524  next Energy=  -427.919364 (dE=-0.929E-02)
 bond charge predicted
       N       E                     dE             d eps       ncg     rms          rms(c)
DAV:   1    -0.418111633754E+03   -0.51860E-02   -0.61212E+00  7200   0.545E+00    0.576E-01
RMM:   2    -0.418122558579E+03   -0.10925E-01   -0.15141E-01  7124   0.879E-01    0.385E-01
RMM:   3    -0.418121621892E+03    0.93669E-03   -0.91377E-03  7308   0.214E-01    0.255E-01
RMM:   4    -0.418121033523E+03    0.58837E-03   -0.33163E-03  6914   0.118E-01    0.170E-01
RMM:   5    -0.418120656869E+03    0.37665E-03   -0.11394E-03  6316   0.727E-02    0.438E-02
RMM:   6    -0.418120653644E+03    0.32259E-05   -0.13886E-04  4397   0.239E-02
 A1 parameter for BJ-Damping is not reasonable. Taking default.
  17 F= -.42791814E+03 E0= -.42791814E+03  d E =-.807376E-02  mag=     0.0000
 curvature: -10.89 expect dE=-0.435E-01 dE for cont linesearch -0.202E-03
 trial: gam= 1.19536 g(F)=  0.399E-02 g(S)=  0.000E+00 ort =-0.552E-03 (trialstep = 0.130E+01)
 search vector abs. value=  0.261E-01
 bond charge predicted
       N       E                     dE             d eps       ncg     rms          rms(c)
DAV:   1    -0.418124562979E+03   -0.39061E-02   -0.17640E+00  7200   0.310E+00    0.236E-01
RMM:   2    -0.418128705476E+03   -0.41425E-02   -0.48077E-02  7026   0.528E-01    0.198E-01
RMM:   3    -0.418128551982E+03    0.15349E-03   -0.22979E-03  6520   0.121E-01    0.147E-01
RMM:   4    -0.418128449745E+03    0.10224E-03   -0.33664E-04  4908   0.431E-02    0.112E-01
RMM:   5    -0.418128383984E+03    0.65760E-04   -0.50460E-04  5532   0.527E-02
 A1 parameter for BJ-Damping is not reasonable. Taking default.
  18 F= -.42792200E+03 E0= -.42792200E+03  d E =-.385652E-02  mag=     0.0000
 ZBRENT: can't locate minimum, use default step
 trial-energy change:   -0.003857  1 .order   -0.003824   -0.004339   -0.003310
 step:   5.2076(harm=  5.4917)  dis= 0.01882  next Energy=  -427.927296 (dE=-0.915E-02)
 bond charge predicted
       N       E                     dE             d eps       ncg     rms          rms(c)
DAV:   1    -0.418109765368E+03    0.18684E-01   -0.15829E+01  7200   0.926E+00    0.691E-01
RMM:   2    -0.418146638652E+03   -0.36873E-01   -0.42723E-01  7124   0.156E+00    0.577E-01
RMM:   3    -0.418145347840E+03    0.12908E-02   -0.20116E-02  7193   0.354E-01    0.434E-01
RMM:   4    -0.418144221787E+03    0.11261E-02   -0.29557E-03  6715   0.121E-01    0.321E-01
RMM:   5    -0.418143470401E+03    0.75139E-03   -0.44502E-03  6922   0.147E-01    0.967E-02
RMM:   6    -0.418143377213E+03    0.93188E-04   -0.26768E-04  4745   0.384E-02
 A1 parameter for BJ-Damping is not reasonable. Taking default.
  19 F= -.42792539E+03 E0= -.42792539E+03  d E =-.724706E-02  mag=     0.0000
 curvature: -21.44 expect dE=-0.567E-01 dE for cont linesearch -0.488E-03
 ZBRENT: interpolating
 opt :   4.2987  next Energy=  -427.925742 (dE=-0.760E-02)
 bond charge predicted
       N       E                     dE             d eps       ncg     rms          rms(c)
DAV:   1    -0.418139265751E+03    0.42047E-02   -0.84870E-01  7200   0.214E+00    0.151E-01
RMM:   2    -0.418141138160E+03   -0.18724E-02   -0.21689E-02  6875   0.355E-01    0.139E-01
RMM:   3    -0.418141058807E+03    0.79353E-04   -0.99004E-04  5462   0.796E-02
 A1 parameter for BJ-Damping is not reasonable. Taking default.
  20 F= -.42792577E+03 E0= -.42792577E+03  d E =-.762602E-02  mag=     0.0000
 curvature: -15.41 expect dE=-0.328E-01 dE for cont linesearch -0.277E-05
 trial: gam= 0.20192 g(F)=  0.213E-02 g(S)=  0.000E+00 ort = 0.686E-04 (trialstep = 0.190E+01)
 search vector abs. value=  0.322E-02
 bond charge predicted
       N       E                     dE             d eps       ncg     rms          rms(c)
DAV:   1    -0.418143978913E+03   -0.28408E-02   -0.48194E-01  7200   0.165E+00    0.179E-01
RMM:   2    -0.418145040130E+03   -0.10612E-02   -0.13973E-02  6847   0.289E-01    0.157E-01
RMM:   3    -0.418144944487E+03    0.95643E-04   -0.65226E-04  5478   0.698E-02
 A1 parameter for BJ-Damping is not reasonable. Taking default.
  21 F= -.42792897E+03 E0= -.42792897E+03  d E =-.320324E-02  mag=     0.0000
 trial-energy change:   -0.003203  1 .order   -0.003294   -0.004069   -0.002519
 step:   4.9905(harm=  4.9905)  dis= 0.00665  next Energy=  -427.931111 (dE=-0.534E-02)
 bond charge predicted
       N       E                     dE             d eps       ncg     rms          rms(c)
DAV:   1    -0.418145789495E+03   -0.74936E-03   -0.12538E+00  7200   0.265E+00    0.288E-01
RMM:   2    -0.418148231475E+03   -0.24420E-02   -0.33023E-02  6972   0.449E-01    0.279E-01
RMM:   3    -0.418147985576E+03    0.24590E-03   -0.14936E-03  6270   0.101E-01    0.217E-01
RMM:   4    -0.418147810731E+03    0.17485E-03   -0.10152E-03  6298   0.667E-02    0.918E-02
RMM:   5    -0.418147729358E+03    0.81373E-04   -0.48100E-04  5198   0.471E-02
 A1 parameter for BJ-Damping is not reasonable. Taking default.
  22 F= -.42793065E+03 E0= -.42793065E+03  d E =-.487877E-02  mag=     0.0000
 curvature:  -3.75 expect dE=-0.746E-02 dE for cont linesearch -0.185E-04
 trial: gam= 1.01449 g(F)=  0.199E-02 g(S)=  0.000E+00 ort =-0.126E-03 (trialstep = 0.161E+01)
 search vector abs. value=  0.504E-02
 bond charge predicted
       N       E                     dE             d eps       ncg     rms          rms(c)
DAV:   1    -0.418150279740E+03   -0.24690E-02   -0.58192E-01  7264   0.176E+00    0.153E-01
RMM:   2    -0.418151448219E+03   -0.11685E-02   -0.14776E-02  6871   0.284E-01    0.164E-01
RMM:   3    -0.418151365797E+03    0.82423E-04   -0.64177E-04  5282   0.654E-02
 A1 parameter for BJ-Damping is not reasonable. Taking default.
  23 F= -.42793308E+03 E0= -.42793308E+03  d E =-.242771E-02  mag=     0.0000
 trial-energy change:   -0.002428  1 .order   -0.002334   -0.002988   -0.001680
 step:   3.6729(harm=  3.6729)  dis= 0.00727  next Energy=  -427.934062 (dE=-0.341E-02)
 bond charge predicted
       N       E                     dE             d eps       ncg     rms          rms(c)
DAV:   1    -0.418152687398E+03   -0.12392E-02   -0.94666E-01  7312   0.224E+00    0.230E-01
RMM:   2    -0.418154308274E+03   -0.16209E-02   -0.21396E-02  6954   0.340E-01    0.212E-01
RMM:   3    -0.418154174110E+03    0.13416E-03   -0.99357E-04  5848   0.795E-02    0.155E-01
RMM:   4    -0.418154087188E+03    0.86922E-04   -0.52842E-04  5738   0.499E-02
 A1 parameter for BJ-Damping is not reasonable. Taking default.
  24 F= -.42793425E+03 E0= -.42793425E+03  d E =-.359663E-02  mag=     0.0000
 curvature:  -4.99 expect dE=-0.570E-02 dE for cont linesearch -0.132E-04
 trial: gam= 0.39902 g(F)=  0.114E-02 g(S)=  0.000E+00 ort = 0.116E-03 (trialstep = 0.202E+01)
 search vector abs. value=  0.204E-02
 bond charge predicted
       N       E                     dE             d eps       ncg     rms          rms(c)
DAV:   1    -0.418155736970E+03   -0.15629E-02   -0.38347E-01  7200   0.143E+00    0.120E-01
RMM:   2    -0.418156509059E+03   -0.77209E-03   -0.95616E-03  6762   0.233E-01    0.117E-01
RMM:   3    -0.418156448321E+03    0.60738E-04   -0.40218E-04  4780   0.537E-02
 A1 parameter for BJ-Damping is not reasonable. Taking default.
  25 F= -.42793610E+03 E0= -.42793610E+03  d E =-.184983E-02  mag=     0.0000
 trial-energy change:   -0.001850  1 .order   -0.001891   -0.002405   -0.001377
 step:   4.7279(harm=  4.7279)  dis= 0.00687  next Energy=  -427.937060 (dE=-0.281E-02)
 bond charge predicted
       N       E                     dE             d eps       ncg     rms          rms(c)
DAV:   1    -0.418156834135E+03   -0.32508E-03   -0.68433E-01  7200   0.191E+00    0.162E-01
RMM:   2    -0.418158065448E+03   -0.12313E-02   -0.16325E-02  6906   0.307E-01    0.162E-01
RMM:   3    -0.418157959130E+03    0.10632E-03   -0.70250E-04  5450   0.687E-02    0.130E-01
RMM:   4    -0.418157861195E+03    0.97935E-04   -0.39064E-04  5448   0.439E-02
 A1 parameter for BJ-Damping is not reasonable. Taking default.
  26 F= -.42793682E+03 E0= -.42793682E+03  d E =-.257691E-02  mag=     0.0000
 curvature:  -4.05 expect dE=-0.141E-02 dE for cont linesearch -0.299E-07
 trial: gam= 0.40199 g(F)=  0.349E-03 g(S)=  0.000E+00 ort =-0.388E-05 (trialstep = 0.256E+01)
 search vector abs. value=  0.676E-03
 bond charge predicted
       N       E                     dE             d eps       ncg     rms          rms(c)
DAV:   1    -0.418158553774E+03   -0.59464E-03   -0.20168E-01  7216   0.105E+00    0.936E-02
RMM:   2    -0.418158961846E+03   -0.40807E-03   -0.53783E-03  6841   0.181E-01    0.103E-01
RMM:   3    -0.418158930419E+03    0.31428E-04   -0.22011E-04  4516   0.415E-02
 A1 parameter for BJ-Damping is not reasonable. Taking default.
  27 F= -.42793740E+03 E0= -.42793740E+03  d E =-.574029E-03  mag=     0.0000
 trial-energy change:   -0.000574  1 .order   -0.000618   -0.000891   -0.000346
 step:   4.1899(harm=  4.1899)  dis= 0.00344  next Energy=  -427.937551 (dE=-0.728E-03)
 bond charge predicted
       N       E                     dE             d eps       ncg     rms          rms(c)
DAV:   1    -0.418159249242E+03   -0.28740E-03   -0.81946E-02  7328   0.670E-01    0.880E-02
RMM:   2    -0.418159383905E+03   -0.13466E-03   -0.19083E-03  6504   0.108E-01    0.771E-02
RMM:   3    -0.418159365133E+03    0.18773E-04   -0.92111E-05  4060   0.289E-02
 A1 parameter for BJ-Damping is not reasonable. Taking default.
  28 F= -.42793752E+03 E0= -.42793752E+03  d E =-.694234E-03  mag=     0.0000
 curvature:  -4.07 expect dE=-0.757E-03 dE for cont linesearch -0.704E-05
 trial: gam= 0.29860 g(F)=  0.186E-03 g(S)=  0.000E+00 ort = 0.342E-04 (trialstep = 0.289E+01)
 search vector abs. value=  0.266E-03
 bond charge predicted
       N       E                     dE             d eps       ncg     rms          rms(c)
DAV:   1    -0.418160332200E+03   -0.94829E-03   -0.47358E-02  7200   0.490E-01    0.791E-02
RMM:   2    -0.418160357031E+03   -0.24830E-04   -0.18492E-03  6705   0.103E-01    0.834E-02
RMM:   3    -0.418160319547E+03    0.37483E-04   -0.98175E-05  4068   0.271E-02
 A1 parameter for BJ-Damping is not reasonable. Taking default.
  29 F= -.42793781E+03 E0= -.42793781E+03  d E =-.295807E-03  mag=     0.0000
 trial-energy change:   -0.000296  1 .order   -0.000311   -0.000566   -0.000057
 step:   3.2095(harm=  3.2095)  dis= 0.00177  next Energy=  -427.937832 (dE=-0.315E-03)
 reached required accuracy - stopping structural energy minimisation
