  48  48   0   0
  0.1808216E+02  0.5921360E-09  0.6547743E-09  0.2238610E-08  0.1000000E-15
  1.000000000000000E-004
  CAR 
 rTiO2_suf110_d3_2x1x4                   
      3.70889771    -21.35318501  301     -1.54369713      1.00000000
    -21.353  0.0000E+00  0.0000E+00  0.0000E+00  0.0000E+00
    -21.270  0.0000E+00  0.0000E+00  0.0000E+00  0.0000E+00
    -21.186  0.0000E+00  0.0000E+00  0.0000E+00  0.0000E+00
    -21.103  0.0000E+00  0.0000E+00  0.0000E+00  0.0000E+00
    -21.019  0.0000E+00  0.0000E+00  0.0000E+00  0.0000E+00
    -20.935  0.0000E+00  0.0000E+00  0.0000E+00  0.0000E+00
    -20.852  0.0000E+00  0.0000E+00  0.0000E+00  0.0000E+00
    -20.768  0.0000E+00  0.0000E+00  0.0000E+00  0.0000E+00
    -20.685  0.0000E+00  0.0000E+00  0.0000E+00  0.0000E+00
    -20.601  0.0000E+00  0.0000E+00  0.0000E+00  0.0000E+00
    -20.518  0.0000E+00  0.0000E+00  0.0000E+00  0.0000E+00
    -20.434  0.2190E-12  0.2190E-12  0.1829E-13  0.1829E-13
    -20.351  0.5174E-07  0.5174E-07  0.4323E-08  0.4323E-08
    -20.267  0.6531E-04  0.6531E-04  0.5460E-05  0.5460E-05
    -20.184  0.1253E-02  0.1253E-02  0.1101E-03  0.1101E-03
    -20.100  0.2920E-02  0.2920E-02  0.3540E-03  0.3540E-03
    -20.017  0.4844E-02  0.4844E-02  0.7587E-03  0.7587E-03
    -19.933  0.2551E-02  0.2551E-02  0.9718E-03  0.9718E-03
    -19.849  0.1836E-02  0.1836E-02  0.1125E-02  0.1125E-02
    -19.766  0.5519E-02  0.5519E-02  0.1586E-02  0.1586E-02
    -19.682  0.9194E-02  0.9194E-02  0.2354E-02  0.2354E-02
    -19.599  0.5182E-02  0.5182E-02  0.2787E-02  0.2787E-02
    -19.515  0.1187E-01  0.1187E-01  0.3779E-02  0.3779E-02
    -19.432  0.2231E-01  0.2231E-01  0.5643E-02  0.5643E-02
    -19.348  0.2118E-01  0.2118E-01  0.7413E-02  0.7413E-02
    -19.265  0.1172E-01  0.1172E-01  0.8392E-02  0.8392E-02
    -19.181  0.2288E-01  0.2288E-01  0.1030E-01  0.1030E-01
    -19.098  0.1973E-01  0.1973E-01  0.1195E-01  0.1195E-01
    -19.014  0.2736E-01  0.2736E-01  0.1424E-01  0.1424E-01
    -18.931  0.3271E-01  0.3271E-01  0.1697E-01  0.1697E-01
    -18.847  0.3177E-01  0.3177E-01  0.1962E-01  0.1962E-01
    -18.763  0.2946E-01  0.2946E-01  0.2208E-01  0.2208E-01
    -18.680  0.2436E-01  0.2436E-01  0.2412E-01  0.2412E-01
    -18.596  0.2120E-01  0.2120E-01  0.2589E-01  0.2589E-01
    -18.513  0.1627E-01  0.1627E-01  0.2725E-01  0.2725E-01
    -18.429  0.2267E-01  0.2267E-01  0.2914E-01  0.2914E-01
    -18.346  0.2446E-01  0.2446E-01  0.3119E-01  0.3119E-01
    -18.262  0.2782E-01  0.2782E-01  0.3351E-01  0.3351E-01
    -18.179  0.1719E-01  0.1719E-01  0.3495E-01  0.3495E-01
    -18.095  0.7983E-03  0.7983E-03  0.3501E-01  0.3501E-01
    -18.012  0.6802E-02  0.6802E-02  0.3558E-01  0.3558E-01
    -17.928  0.1637E-01  0.1637E-01  0.3695E-01  0.3695E-01
    -17.844  0.6453E-02  0.6453E-02  0.3749E-01  0.3749E-01
    -17.761  0.1384E-03  0.1384E-03  0.3750E-01  0.3750E-01
    -17.677  0.2982E-07  0.2982E-07  0.3750E-01  0.3750E-01
    -17.594  0.3296E-13  0.3296E-13  0.3750E-01  0.3750E-01
    -17.510  0.0000E+00  0.0000E+00  0.3750E-01  0.3750E-01
    -17.427  0.0000E+00  0.0000E+00  0.3750E-01  0.3750E-01
    -17.343  0.0000E+00  0.0000E+00  0.3750E-01  0.3750E-01
    -17.260  0.0000E+00  0.0000E+00  0.3750E-01  0.3750E-01
    -17.176  0.0000E+00  0.0000E+00  0.3750E-01  0.3750E-01
    -17.093  0.2761E-14  0.2761E-14  0.3750E-01  0.3750E-01
    -17.009  0.7057E-08  0.7057E-08  0.3750E-01  0.3750E-01
    -16.926  0.8636E-04  0.8636E-04  0.3751E-01  0.3751E-01
    -16.842  0.7624E-02  0.7624E-02  0.3814E-01  0.3814E-01
    -16.758  0.1751E-01  0.1751E-01  0.3961E-01  0.3961E-01
    -16.675  0.4597E-02  0.4597E-02  0.3999E-01  0.3999E-01
    -16.591  0.1129E-03  0.1129E-03  0.4000E-01  0.4000E-01
    -16.508  0.3611E-07  0.3611E-07  0.4000E-01  0.4000E-01
    -16.424  0.5996E-13  0.5996E-13  0.4000E-01  0.4000E-01
    -16.341  0.0000E+00  0.0000E+00  0.4000E-01  0.4000E-01
    -16.257  0.0000E+00  0.0000E+00  0.4000E-01  0.4000E-01
    -16.174  0.0000E+00  0.0000E+00  0.4000E-01  0.4000E-01
    -16.090  0.0000E+00  0.0000E+00  0.4000E-01  0.4000E-01
    -16.007  0.0000E+00  0.0000E+00  0.4000E-01  0.4000E-01
    -15.923  0.0000E+00  0.0000E+00  0.4000E-01  0.4000E-01
    -15.840  0.0000E+00  0.0000E+00  0.4000E-01  0.4000E-01
    -15.756  0.0000E+00  0.0000E+00  0.4000E-01  0.4000E-01
    -15.672  0.0000E+00  0.0000E+00  0.4000E-01  0.4000E-01
    -15.589  0.0000E+00  0.0000E+00  0.4000E-01  0.4000E-01
    -15.505  0.0000E+00  0.0000E+00  0.4000E-01  0.4000E-01
    -15.422  0.0000E+00  0.0000E+00  0.4000E-01  0.4000E-01
    -15.338  0.0000E+00  0.0000E+00  0.4000E-01  0.4000E-01
    -15.255  0.0000E+00  0.0000E+00  0.4000E-01  0.4000E-01
    -15.171  0.0000E+00  0.0000E+00  0.4000E-01  0.4000E-01
    -15.088  0.0000E+00  0.0000E+00  0.4000E-01  0.4000E-01
    -15.004  0.0000E+00  0.0000E+00  0.4000E-01  0.4000E-01
    -14.921  0.0000E+00  0.0000E+00  0.4000E-01  0.4000E-01
    -14.837  0.0000E+00  0.0000E+00  0.4000E-01  0.4000E-01
    -14.754  0.0000E+00  0.0000E+00  0.4000E-01  0.4000E-01
    -14.670  0.0000E+00  0.0000E+00  0.4000E-01  0.4000E-01
    -14.586  0.0000E+00  0.0000E+00  0.4000E-01  0.4000E-01
    -14.503  0.0000E+00  0.0000E+00  0.4000E-01  0.4000E-01
    -14.419  0.0000E+00  0.0000E+00  0.4000E-01  0.4000E-01
    -14.336  0.0000E+00  0.0000E+00  0.4000E-01  0.4000E-01
    -14.252  0.0000E+00  0.0000E+00  0.4000E-01  0.4000E-01
    -14.169  0.0000E+00  0.0000E+00  0.4000E-01  0.4000E-01
    -14.085  0.0000E+00  0.0000E+00  0.4000E-01  0.4000E-01
    -14.002  0.0000E+00  0.0000E+00  0.4000E-01  0.4000E-01
    -13.918  0.0000E+00  0.0000E+00  0.4000E-01  0.4000E-01
    -13.835  0.0000E+00  0.0000E+00  0.4000E-01  0.4000E-01
    -13.751  0.0000E+00  0.0000E+00  0.4000E-01  0.4000E-01
    -13.667  0.0000E+00  0.0000E+00  0.4000E-01  0.4000E-01
    -13.584  0.0000E+00  0.0000E+00  0.4000E-01  0.4000E-01
    -13.500  0.0000E+00  0.0000E+00  0.4000E-01  0.4000E-01
    -13.417  0.0000E+00  0.0000E+00  0.4000E-01  0.4000E-01
    -13.333  0.0000E+00  0.0000E+00  0.4000E-01  0.4000E-01
    -13.250  0.0000E+00  0.0000E+00  0.4000E-01  0.4000E-01
    -13.166  0.0000E+00  0.0000E+00  0.4000E-01  0.4000E-01
    -13.083  0.0000E+00  0.0000E+00  0.4000E-01  0.4000E-01
    -12.999  0.0000E+00  0.0000E+00  0.4000E-01  0.4000E-01
    -12.916  0.0000E+00  0.0000E+00  0.4000E-01  0.4000E-01
    -12.832  0.0000E+00  0.0000E+00  0.4000E-01  0.4000E-01
    -12.749  0.0000E+00  0.0000E+00  0.4000E-01  0.4000E-01
    -12.665  0.0000E+00  0.0000E+00  0.4000E-01  0.4000E-01
    -12.581  0.0000E+00  0.0000E+00  0.4000E-01  0.4000E-01
    -12.498  0.0000E+00  0.0000E+00  0.4000E-01  0.4000E-01
    -12.414  0.0000E+00  0.0000E+00  0.4000E-01  0.4000E-01
    -12.331  0.0000E+00  0.0000E+00  0.4000E-01  0.4000E-01
    -12.247  0.0000E+00  0.0000E+00  0.4000E-01  0.4000E-01
    -12.164  0.0000E+00  0.0000E+00  0.4000E-01  0.4000E-01
    -12.080  0.0000E+00  0.0000E+00  0.4000E-01  0.4000E-01
    -11.997  0.0000E+00  0.0000E+00  0.4000E-01  0.4000E-01
    -11.913  0.0000E+00  0.0000E+00  0.4000E-01  0.4000E-01
    -11.830  0.0000E+00  0.0000E+00  0.4000E-01  0.4000E-01
    -11.746  0.0000E+00  0.0000E+00  0.4000E-01  0.4000E-01
    -11.663  0.0000E+00  0.0000E+00  0.4000E-01  0.4000E-01
    -11.579  0.0000E+00  0.0000E+00  0.4000E-01  0.4000E-01
    -11.495  0.0000E+00  0.0000E+00  0.4000E-01  0.4000E-01
    -11.412  0.0000E+00  0.0000E+00  0.4000E-01  0.4000E-01
    -11.328  0.0000E+00  0.0000E+00  0.4000E-01  0.4000E-01
    -11.245  0.0000E+00  0.0000E+00  0.4000E-01  0.4000E-01
    -11.161  0.0000E+00  0.0000E+00  0.4000E-01  0.4000E-01
    -11.078  0.0000E+00  0.0000E+00  0.4000E-01  0.4000E-01
    -10.994  0.0000E+00  0.0000E+00  0.4000E-01  0.4000E-01
    -10.911  0.0000E+00  0.0000E+00  0.4000E-01  0.4000E-01
    -10.827  0.0000E+00  0.0000E+00  0.4000E-01  0.4000E-01
    -10.744  0.0000E+00  0.0000E+00  0.4000E-01  0.4000E-01
    -10.660  0.0000E+00  0.0000E+00  0.4000E-01  0.4000E-01
    -10.576  0.0000E+00  0.0000E+00  0.4000E-01  0.4000E-01
    -10.493  0.0000E+00  0.0000E+00  0.4000E-01  0.4000E-01
    -10.409  0.0000E+00  0.0000E+00  0.4000E-01  0.4000E-01
    -10.326  0.0000E+00  0.0000E+00  0.4000E-01  0.4000E-01
    -10.242  0.0000E+00  0.0000E+00  0.4000E-01  0.4000E-01
    -10.159  0.0000E+00  0.0000E+00  0.4000E-01  0.4000E-01
    -10.075  0.0000E+00  0.0000E+00  0.4000E-01  0.4000E-01
     -9.992  0.0000E+00  0.0000E+00  0.4000E-01  0.4000E-01
     -9.908  0.0000E+00  0.0000E+00  0.4000E-01  0.4000E-01
     -9.825  0.0000E+00  0.0000E+00  0.4000E-01  0.4000E-01
     -9.741  0.0000E+00  0.0000E+00  0.4000E-01  0.4000E-01
     -9.658  0.0000E+00  0.0000E+00  0.4000E-01  0.4000E-01
     -9.574  0.0000E+00  0.0000E+00  0.4000E-01  0.4000E-01
     -9.490  0.0000E+00  0.0000E+00  0.4000E-01  0.4000E-01
     -9.407  0.0000E+00  0.0000E+00  0.4000E-01  0.4000E-01
     -9.323  0.0000E+00  0.0000E+00  0.4000E-01  0.4000E-01
     -9.240  0.0000E+00  0.0000E+00  0.4000E-01  0.4000E-01
     -9.156  0.0000E+00  0.0000E+00  0.4000E-01  0.4000E-01
     -9.073  0.0000E+00  0.0000E+00  0.4000E-01  0.4000E-01
     -8.989  0.0000E+00  0.0000E+00  0.4000E-01  0.4000E-01
     -8.906  0.0000E+00  0.0000E+00  0.4000E-01  0.4000E-01
     -8.822  0.0000E+00  0.0000E+00  0.4000E-01  0.4000E-01
     -8.739  0.0000E+00  0.0000E+00  0.4000E-01  0.4000E-01
     -8.655  0.0000E+00  0.0000E+00  0.4000E-01  0.4000E-01
     -8.572  0.0000E+00  0.0000E+00  0.4000E-01  0.4000E-01
     -8.488  0.0000E+00  0.0000E+00  0.4000E-01  0.4000E-01
     -8.404  0.0000E+00  0.0000E+00  0.4000E-01  0.4000E-01
     -8.321  0.0000E+00  0.0000E+00  0.4000E-01  0.4000E-01
     -8.237  0.0000E+00  0.0000E+00  0.4000E-01  0.4000E-01
     -8.154  0.0000E+00  0.0000E+00  0.4000E-01  0.4000E-01
     -8.070  0.0000E+00  0.0000E+00  0.4000E-01  0.4000E-01
     -7.987  0.3011E-17  0.3011E-17  0.4000E-01  0.4000E-01
     -7.903  0.2630E-10  0.2630E-10  0.4000E-01  0.4000E-01
     -7.820  0.1060E-05  0.1060E-05  0.4000E-01  0.4000E-01
     -7.736  0.3306E-03  0.3306E-03  0.4003E-01  0.4003E-01
     -7.653  0.2575E-02  0.2575E-02  0.4024E-01  0.4024E-01
     -7.569  0.1472E-02  0.1472E-02  0.4037E-01  0.4037E-01
     -7.485  0.4311E-02  0.4311E-02  0.4073E-01  0.4073E-01
     -7.402  0.5482E-02  0.5482E-02  0.4118E-01  0.4118E-01
     -7.318  0.3204E-02  0.3204E-02  0.4145E-01  0.4145E-01
     -7.235  0.4097E-02  0.4097E-02  0.4179E-01  0.4179E-01
     -7.151  0.7419E-02  0.7419E-02  0.4241E-01  0.4241E-01
     -7.068  0.1038E-01  0.1038E-01  0.4328E-01  0.4328E-01
     -6.984  0.1447E-01  0.1447E-01  0.4449E-01  0.4449E-01
     -6.901  0.1281E-01  0.1281E-01  0.4556E-01  0.4556E-01
     -6.817  0.1831E-01  0.1831E-01  0.4709E-01  0.4709E-01
     -6.734  0.1662E-01  0.1662E-01  0.4848E-01  0.4848E-01
     -6.650  0.2024E-01  0.2024E-01  0.5017E-01  0.5017E-01
     -6.567  0.2499E-01  0.2499E-01  0.5226E-01  0.5226E-01
     -6.483  0.3291E-01  0.3291E-01  0.5500E-01  0.5500E-01
     -6.399  0.2169E-01  0.2169E-01  0.5682E-01  0.5682E-01
     -6.316  0.2543E-01  0.2543E-01  0.5894E-01  0.5894E-01
     -6.232  0.2271E-01  0.2271E-01  0.6084E-01  0.6084E-01
     -6.149  0.4081E-01  0.4081E-01  0.6425E-01  0.6425E-01
     -6.065  0.3928E-01  0.3928E-01  0.6753E-01  0.6753E-01
     -5.982  0.3714E-01  0.3714E-01  0.7063E-01  0.7063E-01
     -5.898  0.3262E-01  0.3262E-01  0.7336E-01  0.7336E-01
     -5.815  0.2524E-01  0.2524E-01  0.7547E-01  0.7547E-01
     -5.731  0.1480E-01  0.1480E-01  0.7670E-01  0.7670E-01
     -5.648  0.1846E-01  0.1846E-01  0.7824E-01  0.7824E-01
     -5.564  0.2224E-01  0.2224E-01  0.8010E-01  0.8010E-01
     -5.481  0.1616E-01  0.1616E-01  0.8145E-01  0.8145E-01
     -5.397  0.2008E-01  0.2008E-01  0.8313E-01  0.8313E-01
     -5.313  0.2360E-01  0.2360E-01  0.8510E-01  0.8510E-01
     -5.230  0.1776E-01  0.1776E-01  0.8659E-01  0.8659E-01
     -5.146  0.1393E-01  0.1393E-01  0.8775E-01  0.8775E-01
     -5.063  0.1957E-01  0.1957E-01  0.8938E-01  0.8938E-01
     -4.979  0.2506E-01  0.2506E-01  0.9148E-01  0.9148E-01
     -4.896  0.1785E-01  0.1785E-01  0.9297E-01  0.9297E-01
     -4.812  0.1900E-01  0.1900E-01  0.9456E-01  0.9456E-01
     -4.729  0.2052E-01  0.2052E-01  0.9627E-01  0.9627E-01
     -4.645  0.3495E-01  0.3495E-01  0.9919E-01  0.9919E-01
     -4.562  0.3223E-01  0.3223E-01  0.1019E+00  0.1019E+00
     -4.478  0.3094E-01  0.3094E-01  0.1045E+00  0.1045E+00
     -4.395  0.3061E-01  0.3061E-01  0.1070E+00  0.1070E+00
     -4.311  0.2711E-01  0.2711E-01  0.1093E+00  0.1093E+00
     -4.227  0.2263E-01  0.2263E-01  0.1112E+00  0.1112E+00
     -4.144  0.3560E-01  0.3560E-01  0.1142E+00  0.1142E+00
     -4.060  0.3321E-01  0.3321E-01  0.1169E+00  0.1169E+00
     -3.977  0.2810E-01  0.2810E-01  0.1193E+00  0.1193E+00
     -3.893  0.2928E-01  0.2928E-01  0.1217E+00  0.1217E+00
     -3.810  0.2250E-01  0.2250E-01  0.1236E+00  0.1236E+00
     -3.726  0.2526E-01  0.2526E-01  0.1257E+00  0.1257E+00
     -3.643  0.1921E-01  0.1921E-01  0.1273E+00  0.1273E+00
     -3.559  0.2696E-01  0.2696E-01  0.1296E+00  0.1296E+00
     -3.476  0.2419E-01  0.2419E-01  0.1316E+00  0.1316E+00
     -3.392  0.2625E-01  0.2625E-01  0.1338E+00  0.1338E+00
     -3.308  0.1948E-01  0.1948E-01  0.1354E+00  0.1354E+00
     -3.225  0.2353E-01  0.2353E-01  0.1374E+00  0.1374E+00
     -3.141  0.2321E-01  0.2321E-01  0.1393E+00  0.1393E+00
     -3.058  0.1926E-01  0.1926E-01  0.1409E+00  0.1409E+00
     -2.974  0.2693E-01  0.2693E-01  0.1432E+00  0.1432E+00
     -2.891  0.2365E-01  0.2365E-01  0.1451E+00  0.1451E+00
     -2.807  0.2384E-01  0.2384E-01  0.1471E+00  0.1471E+00
     -2.724  0.2138E-01  0.2138E-01  0.1489E+00  0.1489E+00
     -2.640  0.1600E-01  0.1600E-01  0.1503E+00  0.1503E+00
     -2.557  0.1928E-01  0.1928E-01  0.1519E+00  0.1519E+00
     -2.473  0.1684E-01  0.1684E-01  0.1533E+00  0.1533E+00
     -2.390  0.6940E-02  0.6940E-02  0.1539E+00  0.1539E+00
     -2.306  0.3247E-02  0.3247E-02  0.1541E+00  0.1541E+00
     -2.222  0.5494E-02  0.5494E-02  0.1546E+00  0.1546E+00
     -2.139  0.4280E-02  0.4280E-02  0.1549E+00  0.1549E+00
     -2.055  0.6180E-02  0.6180E-02  0.1555E+00  0.1555E+00
     -1.972  0.1172E-01  0.1172E-01  0.1564E+00  0.1564E+00
     -1.888  0.1920E-01  0.1920E-01  0.1580E+00  0.1580E+00
     -1.805  0.1993E-01  0.1993E-01  0.1597E+00  0.1597E+00
     -1.721  0.3325E-02  0.3325E-02  0.1600E+00  0.1600E+00
     -1.638  0.1483E-03  0.1483E-03  0.1600E+00  0.1600E+00
     -1.554  0.2821E-06  0.2821E-06  0.1600E+00  0.1600E+00
     -1.471  0.3201E-11  0.3201E-11  0.1600E+00  0.1600E+00
     -1.387  0.2077E-18  0.2077E-18  0.1600E+00  0.1600E+00
     -1.304  0.0000E+00  0.0000E+00  0.1600E+00  0.1600E+00
     -1.220  0.0000E+00  0.0000E+00  0.1600E+00  0.1600E+00
     -1.136  0.0000E+00  0.0000E+00  0.1600E+00  0.1600E+00
     -1.053  0.0000E+00  0.0000E+00  0.1600E+00  0.1600E+00
     -0.969  0.0000E+00  0.0000E+00  0.1600E+00  0.1600E+00
     -0.886  0.0000E+00  0.0000E+00  0.1600E+00  0.1600E+00
     -0.802  0.0000E+00  0.0000E+00  0.1600E+00  0.1600E+00
     -0.719  0.6355E-14  0.6355E-14  0.1600E+00  0.1600E+00
     -0.635  0.5091E-08  0.5091E-08  0.1600E+00  0.1600E+00
     -0.552  0.2056E-04  0.2056E-04  0.1600E+00  0.1600E+00
     -0.468  0.1061E-02  0.1061E-02  0.1601E+00  0.1601E+00
     -0.385  0.3787E-02  0.3787E-02  0.1604E+00  0.1604E+00
     -0.301  0.5876E-02  0.5876E-02  0.1609E+00  0.1609E+00
     -0.217  0.1265E-01  0.1265E-01  0.1620E+00  0.1620E+00
     -0.134  0.1096E-01  0.1096E-01  0.1629E+00  0.1629E+00
     -0.050  0.2317E-01  0.2317E-01  0.1648E+00  0.1648E+00
      0.033  0.2696E-01  0.2696E-01  0.1671E+00  0.1671E+00
      0.117  0.2437E-01  0.2437E-01  0.1691E+00  0.1691E+00
      0.200  0.2446E-01  0.2446E-01  0.1711E+00  0.1711E+00
      0.284  0.2526E-01  0.2526E-01  0.1732E+00  0.1732E+00
      0.367  0.2470E-01  0.2470E-01  0.1753E+00  0.1753E+00
      0.451  0.3123E-01  0.3123E-01  0.1779E+00  0.1779E+00
      0.534  0.3417E-01  0.3417E-01  0.1808E+00  0.1808E+00
      0.618  0.2246E-01  0.2246E-01  0.1827E+00  0.1827E+00
      0.701  0.2391E-01  0.2391E-01  0.1846E+00  0.1846E+00
      0.785  0.2892E-01  0.2892E-01  0.1871E+00  0.1871E+00
      0.869  0.2854E-01  0.2854E-01  0.1894E+00  0.1894E+00
      0.952  0.2670E-01  0.2670E-01  0.1917E+00  0.1917E+00
      1.036  0.2814E-01  0.2814E-01  0.1940E+00  0.1940E+00
      1.119  0.2814E-01  0.2814E-01  0.1964E+00  0.1964E+00
      1.203  0.2536E-01  0.2536E-01  0.1985E+00  0.1985E+00
      1.286  0.2127E-01  0.2127E-01  0.2003E+00  0.2003E+00
      1.370  0.3528E-01  0.3528E-01  0.2032E+00  0.2032E+00
      1.453  0.4154E-01  0.4154E-01  0.2067E+00  0.2067E+00
      1.537  0.3020E-01  0.3020E-01  0.2092E+00  0.2092E+00
      1.620  0.1802E-01  0.1802E-01  0.2107E+00  0.2107E+00
      1.704  0.2947E-01  0.2947E-01  0.2132E+00  0.2132E+00
      1.787  0.2473E-01  0.2473E-01  0.2152E+00  0.2152E+00
      1.871  0.2110E-01  0.2110E-01  0.2170E+00  0.2170E+00
      1.955  0.1398E-01  0.1398E-01  0.2182E+00  0.2182E+00
      2.038  0.1579E-01  0.1579E-01  0.2195E+00  0.2195E+00
      2.122  0.2167E-01  0.2167E-01  0.2213E+00  0.2213E+00
      2.205  0.1366E-01  0.1366E-01  0.2225E+00  0.2225E+00
      2.289  0.9096E-02  0.9096E-02  0.2232E+00  0.2232E+00
      2.372  0.1079E-01  0.1079E-01  0.2241E+00  0.2241E+00
      2.456  0.6509E-02  0.6509E-02  0.2247E+00  0.2247E+00
      2.539  0.3265E-02  0.3265E-02  0.2249E+00  0.2249E+00
      2.623  0.7917E-03  0.7917E-03  0.2250E+00  0.2250E+00
      2.706  0.6202E-04  0.6203E-04  0.2250E+00  0.2250E+00
      2.790  0.5161E-07  0.5162E-07  0.2250E+00  0.2250E+00
      2.873  0.2188E-12  0.2189E-12  0.2250E+00  0.2250E+00
      2.957  0.0000E+00  0.0000E+00  0.2250E+00  0.2250E+00
      3.041  0.0000E+00  0.0000E+00  0.2250E+00  0.2250E+00
      3.124  0.0000E+00  0.0000E+00  0.2250E+00  0.2250E+00
      3.208  0.0000E+00  0.0000E+00  0.2250E+00  0.2250E+00
      3.291  0.0000E+00  0.0000E+00  0.2250E+00  0.2250E+00
      3.375  0.0000E+00  0.0000E+00  0.2250E+00  0.2250E+00
      3.458  0.0000E+00  0.0000E+00  0.2250E+00  0.2250E+00
      3.542  0.0000E+00  0.0000E+00  0.2250E+00  0.2250E+00
      3.625  0.0000E+00  0.0000E+00  0.2250E+00  0.2250E+00
      3.709  0.0000E+00  0.0000E+00  0.2250E+00  0.2250E+00
