rTiO2_suf110_d3_2x1x4                   
           1
     0.000000    0.000000    5.921360
     4.629953   -4.629953    0.000000
    15.829365   15.829365    0.000000
   O    Ti
  32  16
Direct configuration=     1
   0.08911189  0.77346320  0.00000000
   0.58911189  0.77346320  0.00000000
   0.33911189  0.07763320  0.05727859
   0.83911189  0.07763320  0.05727859
   0.33911189  0.46929320  0.05727859
   0.83911189  0.46929320  0.05727859
   0.08911189  0.77346320  0.11455719
   0.58911189  0.77346320  0.11455719
   0.08911189  0.27346320  0.14624570
   0.58911189  0.27346320  0.14624570
   0.33911189  0.57763320  0.20352430
   0.83911189  0.57763320  0.20352430
   0.33911189  0.96929320  0.20352430
   0.83911189  0.96929320  0.20352430
   0.08911189  0.27346320  0.26080289
   0.58911189  0.27346320  0.26080289
   0.08911189  0.77346320  0.29249141
   0.58911189  0.77346320  0.29249141
   0.33911189  0.07763320  0.34977000
   0.83911189  0.07763320  0.34977000
   0.33911189  0.46929320  0.34977000
   0.83911189  0.46929320  0.34977000
   0.08911189  0.77346320  0.40704859
   0.58911189  0.77346320  0.40704859
   0.08911189  0.27346320  0.43873711
   0.58911189  0.27346320  0.43873711
   0.33911189  0.57763320  0.49601571
   0.83911189  0.57763320  0.49601571
   0.33911189  0.96929320  0.49601571
   0.83911189  0.96929320  0.49601571
   0.08911189  0.27346320  0.55329430
   0.58911189  0.27346320  0.55329430
   0.08911189  0.27346320  0.05727859
   0.58911189  0.27346320  0.05727859
   0.33911189  0.77346320  0.05727859
   0.83911189  0.77346320  0.05727859
   0.33911189  0.27346320  0.20352430
   0.83911189  0.27346320  0.20352430
   0.08911189  0.77346320  0.20352430
   0.58911189  0.77346320  0.20352430
   0.08911189  0.27346320  0.34977000
   0.58911189  0.27346320  0.34977000
   0.33911189  0.77346320  0.34977000
   0.83911189  0.77346320  0.34977000
   0.33911189  0.27346320  0.49601571
   0.83911189  0.27346320  0.49601571
   0.08911189  0.77346320  0.49601571
   0.58911189  0.77346320  0.49601571
Direct configuration=     2
   0.08911189  0.77346320  0.00000000
   0.58911189  0.77346320  0.00000000
   0.33911189  0.07763320  0.05727859
   0.83911189  0.07763320  0.05727859
   0.33911189  0.46929320  0.05727859
   0.83911189  0.46929320  0.05727859
   0.08911189  0.77346320  0.11455719
   0.58911189  0.77346320  0.11455719
   0.08911189  0.27346320  0.14624570
   0.58911189  0.27346320  0.14624570
   0.33911189  0.57763320  0.20352430
   0.83911189  0.57763320  0.20352430
   0.33911189  0.96929320  0.20352430
   0.83911189  0.96929320  0.20352430
   0.08911189  0.27346320  0.26080289
   0.58911189  0.27346320  0.26080289
   0.08911099  0.77346183  0.29274362
   0.58911098  0.77346183  0.29274362
   0.33911006  0.07717149  0.34973655
   0.83911006  0.07717149  0.34973655
   0.33911272  0.46975904  0.34973814
   0.83911272  0.46975904  0.34973814
   0.08910849  0.77346117  0.40770171
   0.58910849  0.77346117  0.40770170
   0.08910687  0.27346182  0.43796677
   0.58910687  0.27346182  0.43796677
   0.33911121  0.58017282  0.49635127
   0.83911123  0.58017282  0.49635127
   0.33911320  0.96675853  0.49635068
   0.83911322  0.96675853  0.49635068
   0.08911066  0.27346208  0.55249632
   0.58911066  0.27346208  0.55249633
   0.08911189  0.27346320  0.05727859
   0.58911189  0.27346320  0.05727859
   0.33911189  0.77346320  0.05727859
   0.83911189  0.77346320  0.05727859
   0.33911189  0.27346320  0.20352430
   0.83911189  0.27346320  0.20352430
   0.08911189  0.77346320  0.20352430
   0.58911189  0.77346320  0.20352430
   0.08911301  0.27346270  0.35021261
   0.58911301  0.27346270  0.35021261
   0.33911483  0.77346351  0.34943518
   0.83911481  0.77346351  0.34943518
   0.33911506  0.27346219  0.49744956
   0.83911503  0.27346219  0.49744956
   0.08911463  0.77346080  0.49478305
   0.58911463  0.77346080  0.49478305
Direct configuration=     3
   0.08911189  0.77346320  0.00000000
   0.58911189  0.77346320  0.00000000
   0.33911189  0.07763320  0.05727859
   0.83911189  0.07763320  0.05727859
   0.33911189  0.46929320  0.05727859
   0.83911189  0.46929320  0.05727859
   0.08911189  0.77346320  0.11455719
   0.58911189  0.77346320  0.11455719
   0.08911189  0.27346320  0.14624570
   0.58911189  0.27346320  0.14624570
   0.33911189  0.57763320  0.20352430
   0.83911189  0.57763320  0.20352430
   0.33911189  0.96929320  0.20352430
   0.83911189  0.96929320  0.20352430
   0.08911189  0.27346320  0.26080289
   0.58911189  0.27346320  0.26080289
   0.08910869  0.77345836  0.29338122
   0.58910868  0.77345836  0.29338121
   0.33910544  0.07600430  0.34965199
   0.83910544  0.07600430  0.34965199
   0.33911480  0.47093669  0.34965759
   0.83911480  0.47093669  0.34965759
   0.08909989  0.77345603  0.40935277
   0.58909988  0.77345603  0.40935274
   0.08909418  0.27345834  0.43601935
   0.58909418  0.27345834  0.43601935
   0.33910947  0.58659291  0.49719957
   0.83910956  0.58659290  0.49719957
   0.33911650  0.96035096  0.49719749
   0.83911657  0.96035096  0.49719749
   0.08910754  0.27345924  0.55047905
   0.58910754  0.27345924  0.55047910
   0.08911189  0.27346320  0.05727859
   0.58911189  0.27346320  0.05727859
   0.33911189  0.77346320  0.05727859
   0.83911189  0.77346320  0.05727859
   0.33911189  0.27346320  0.20352430
   0.83911189  0.27346320  0.20352430
   0.08911189  0.77346320  0.20352430
   0.58911189  0.77346320  0.20352430
   0.08911581  0.27346145  0.35133150
   0.58911581  0.27346145  0.35133150
   0.33912227  0.77346430  0.34858876
   0.83912219  0.77346430  0.34858876
   0.33912305  0.27345963  0.50107429
   0.83912296  0.27345963  0.50107429
   0.08912154  0.77345474  0.49166692
   0.58912154  0.77345474  0.49166694
Direct configuration=     4
   0.08911189  0.77346320  0.00000000
   0.58911189  0.77346320  0.00000000
   0.33911189  0.07763320  0.05727859
   0.83911189  0.07763320  0.05727859
   0.33911189  0.46929320  0.05727859
   0.83911189  0.46929320  0.05727859
   0.08911189  0.77346320  0.11455719
   0.58911189  0.77346320  0.11455719
   0.08911189  0.27346320  0.14624570
   0.58911189  0.27346320  0.14624570
   0.33911189  0.57763320  0.20352430
   0.83911189  0.57763320  0.20352430
   0.33911189  0.96929320  0.20352430
   0.83911189  0.96929320  0.20352430
   0.08911189  0.27346320  0.26080289
   0.58911189  0.27346320  0.26080289
   0.08910398  0.77345670  0.29368817
   0.58910397  0.77345671  0.29368817
   0.33910458  0.07480422  0.34953669
   0.83910458  0.07480422  0.34953669
   0.33912005  0.47214197  0.34954298
   0.83912005  0.47214197  0.34954298
   0.08909626  0.77345669  0.40917415
   0.58909625  0.77345669  0.40917414
   0.08909093  0.27345730  0.43599033
   0.58909093  0.27345730  0.43599034
   0.33910321  0.58556975  0.49786103
   0.83910325  0.58556975  0.49786103
   0.33910867  0.96136385  0.49785867
   0.83910871  0.96136385  0.49785867
   0.08909926  0.27345779  0.55048339
   0.58909926  0.27345779  0.55048343
   0.08911189  0.27346320  0.05727859
   0.58911189  0.27346320  0.05727859
   0.33911189  0.77346320  0.05727859
   0.83911189  0.77346320  0.05727859
   0.33911189  0.27346320  0.20352430
   0.83911189  0.27346320  0.20352430
   0.08911189  0.77346320  0.20352430
   0.58911189  0.77346320  0.20352430
   0.08912131  0.27346243  0.35201665
   0.58912131  0.27346243  0.35201665
   0.33912325  0.77346605  0.34834122
   0.83912320  0.77346605  0.34834122
   0.33913006  0.27345868  0.50105971
   0.83912997  0.27345867  0.50105971
   0.08912473  0.77345524  0.49052649
   0.58912473  0.77345524  0.49052651
Direct configuration=     5
   0.08911189  0.77346320  0.00000000
   0.58911189  0.77346320  0.00000000
   0.33911189  0.07763320  0.05727859
   0.83911189  0.07763320  0.05727859
   0.33911189  0.46929320  0.05727859
   0.83911189  0.46929320  0.05727859
   0.08911189  0.77346320  0.11455719
   0.58911189  0.77346320  0.11455719
   0.08911189  0.27346320  0.14624570
   0.58911189  0.27346320  0.14624570
   0.33911189  0.57763320  0.20352430
   0.83911189  0.57763320  0.20352430
   0.33911189  0.96929320  0.20352430
   0.83911189  0.96929320  0.20352430
   0.08911189  0.27346320  0.26080289
   0.58911189  0.27346320  0.26080289
   0.08909654  0.77345408  0.29417340
   0.58909654  0.77345409  0.29417339
   0.33910324  0.07290718  0.34935443
   0.83910322  0.07290718  0.34935443
   0.33912835  0.47404724  0.34936180
   0.83912834  0.47404724  0.34936180
   0.08909051  0.77345773  0.40889180
   0.58909051  0.77345772  0.40889181
   0.08908579  0.27345566  0.43594445
   0.58908579  0.27345566  0.43594447
   0.33909331  0.58395238  0.49890665
   0.83909330  0.58395238  0.49890665
   0.33909631  0.96296498  0.49890385
   0.83909629  0.96296499  0.49890385
   0.08908616  0.27345550  0.55049024
   0.58908616  0.27345550  0.55049028
   0.08911189  0.27346320  0.05727859
   0.58911189  0.27346320  0.05727859
   0.33911189  0.77346320  0.05727859
   0.83911189  0.77346320  0.05727859
   0.33911189  0.27346320  0.20352430
   0.83911189  0.27346320  0.20352430
   0.08911189  0.77346320  0.20352430
   0.58911189  0.77346320  0.20352430
   0.08913000  0.27346397  0.35309973
   0.58912999  0.27346397  0.35309972
   0.33912480  0.77346882  0.34794991
   0.83912480  0.77346882  0.34794991
   0.33914114  0.27345717  0.50103667
   0.83914106  0.27345717  0.50103667
   0.08912977  0.77345604  0.48872375
   0.58912977  0.77345604  0.48872375
Direct configuration=     6
   0.08911189  0.77346320  0.00000000
   0.58911189  0.77346320  0.00000000
   0.33911189  0.07763320  0.05727859
   0.83911189  0.07763320  0.05727859
   0.33911189  0.46929320  0.05727859
   0.83911189  0.46929320  0.05727859
   0.08911189  0.77346320  0.11455719
   0.58911189  0.77346320  0.11455719
   0.08911189  0.27346320  0.14624570
   0.58911189  0.27346320  0.14624570
   0.33911189  0.57763320  0.20352430
   0.83911189  0.57763320  0.20352430
   0.33911189  0.96929320  0.20352430
   0.83911189  0.96929320  0.20352430
   0.08911189  0.27346320  0.26080289
   0.58911189  0.27346320  0.26080289
   0.08908983  0.77345171  0.29418822
   0.58908982  0.77345172  0.29418821
   0.33910710  0.07271457  0.34930667
   0.83910708  0.07271457  0.34930667
   0.33912854  0.47424009  0.34931090
   0.83912852  0.47424009  0.34931090
   0.08908421  0.77345653  0.40784114
   0.58908421  0.77345653  0.40784115
   0.08908024  0.27345618  0.43617455
   0.58907995  0.27345541  0.43617473
   0.33909061  0.58332405  0.49946634
   0.83909060  0.58332405  0.49946634
   0.33909209  0.96359015  0.49946421
   0.83909207  0.96359015  0.49946421
   0.08907948  0.27345175  0.55059253
   0.58907948  0.27345175  0.55059257
   0.08911189  0.27346320  0.05727859
   0.58911189  0.27346320  0.05727859
   0.33911189  0.77346320  0.05727859
   0.83911189  0.77346320  0.05727859
   0.33911189  0.27346320  0.20352430
   0.83911189  0.27346320  0.20352430
   0.08911189  0.77346320  0.20352430
   0.58911189  0.77346320  0.20352430
   0.08913719  0.27346327  0.35334103
   0.58913719  0.27346327  0.35334103
   0.33912044  0.77347032  0.34754074
   0.83912044  0.77347032  0.34754074
   0.33914664  0.27345803  0.50117829
   0.83914658  0.27345803  0.50117829
   0.08913087  0.77345518  0.48886974
   0.58913087  0.77345518  0.48886974
Direct configuration=     7
   0.08911189  0.77346320  0.00000000
   0.58911189  0.77346320  0.00000000
   0.33911189  0.07763320  0.05727859
   0.83911189  0.07763320  0.05727859
   0.33911189  0.46929320  0.05727859
   0.83911189  0.46929320  0.05727859
   0.08911189  0.77346320  0.11455719
   0.58911189  0.77346320  0.11455719
   0.08911189  0.27346320  0.14624570
   0.58911189  0.27346320  0.14624570
   0.33911189  0.57763320  0.20352430
   0.83911189  0.57763320  0.20352430
   0.33911189  0.96929320  0.20352430
   0.83911189  0.96929320  0.20352430
   0.08911189  0.27346320  0.26080289
   0.58911189  0.27346320  0.26080289
   0.08908659  0.77345058  0.29419535
   0.58908659  0.77345058  0.29419535
   0.33910896  0.07262186  0.34928368
   0.83910894  0.07262186  0.34928368
   0.33912863  0.47433291  0.34928640
   0.83912861  0.47433292  0.34928640
   0.08908118  0.77345595  0.40733545
   0.58908118  0.77345595  0.40733546
   0.08907756  0.27345643  0.43628530
   0.58907714  0.27345529  0.43628556
   0.33908932  0.58302163  0.49973572
   0.83908930  0.58302163  0.49973572
   0.33909006  0.96389104  0.49973392
   0.83909004  0.96389104  0.49973392
   0.08907626  0.27344994  0.55064177
   0.58907626  0.27344995  0.55064179
   0.08911189  0.27346320  0.05727859
   0.58911189  0.27346320  0.05727859
   0.33911189  0.77346320  0.05727859
   0.83911189  0.77346320  0.05727859
   0.33911189  0.27346320  0.20352430
   0.83911189  0.27346320  0.20352430
   0.08911189  0.77346320  0.20352430
   0.58911189  0.77346320  0.20352430
   0.08914065  0.27346293  0.35345718
   0.58914065  0.27346293  0.35345717
   0.33911834  0.77347103  0.34734381
   0.83911834  0.77347103  0.34734381
   0.33914930  0.27345844  0.50124646
   0.83914923  0.27345844  0.50124646
   0.08913140  0.77345477  0.48894000
   0.58913140  0.77345477  0.48894001
Direct configuration=     8
   0.08911189  0.77346320  0.00000000
   0.58911189  0.77346320  0.00000000
   0.33911189  0.07763320  0.05727859
   0.83911189  0.07763320  0.05727859
   0.33911189  0.46929320  0.05727859
   0.83911189  0.46929320  0.05727859
   0.08911189  0.77346320  0.11455719
   0.58911189  0.77346320  0.11455719
   0.08911189  0.27346320  0.14624570
   0.58911189  0.27346320  0.14624570
   0.33911189  0.57763320  0.20352430
   0.83911189  0.57763320  0.20352430
   0.33911189  0.96929320  0.20352430
   0.83911189  0.96929320  0.20352430
   0.08911189  0.27346320  0.26080289
   0.58911189  0.27346320  0.26080289
   0.08907983  0.77344833  0.29380032
   0.58907983  0.77344834  0.29380032
   0.33911620  0.07326030  0.34926767
   0.83911613  0.07326030  0.34926767
   0.33912475  0.47369034  0.34926744
   0.83912463  0.47369033  0.34926745
   0.08907192  0.77345275  0.40704266
   0.58907192  0.77345274  0.40704266
   0.08906649  0.27345404  0.43672783
   0.58906601  0.27345259  0.43672806
   0.33909170  0.58344740  0.50034151
   0.83909168  0.58344739  0.50034151
   0.33908549  0.96346212  0.50033807
   0.83908553  0.96346213  0.50033807
   0.08907264  0.27344536  0.55084702
   0.58907269  0.27344539  0.55084705
   0.08911189  0.27346320  0.05727859
   0.58911189  0.27346320  0.05727859
   0.33911189  0.77346320  0.05727859
   0.83911189  0.77346320  0.05727859
   0.33911189  0.27346320  0.20352430
   0.83911189  0.27346320  0.20352430
   0.08911189  0.77346320  0.20352430
   0.58911189  0.77346320  0.20352430
   0.08915023  0.27346386  0.35342393
   0.58915022  0.27346386  0.35342398
   0.33911672  0.77346942  0.34682506
   0.83911671  0.77346942  0.34682505
   0.33914490  0.27346046  0.50148060
   0.83914476  0.27346046  0.50148060
   0.08913043  0.77345784  0.48865762
   0.58913041  0.77345784  0.48865762
Direct configuration=     9
   0.08911189  0.77346320  0.00000000
   0.58911189  0.77346320  0.00000000
   0.33911189  0.07763320  0.05727859
   0.83911189  0.07763320  0.05727859
   0.33911189  0.46929320  0.05727859
   0.83911189  0.46929320  0.05727859
   0.08911189  0.77346320  0.11455719
   0.58911189  0.77346320  0.11455719
   0.08911189  0.27346320  0.14624570
   0.58911189  0.27346320  0.14624570
   0.33911189  0.57763320  0.20352430
   0.83911189  0.57763320  0.20352430
   0.33911189  0.96929320  0.20352430
   0.83911189  0.96929320  0.20352430
   0.08911189  0.27346320  0.26080289
   0.58911189  0.27346320  0.26080289
   0.08906761  0.77344427  0.29308694
   0.58906763  0.77344428  0.29308695
   0.33912927  0.07441325  0.34923874
   0.83912913  0.07441326  0.34923875
   0.33911776  0.47252991  0.34923322
   0.83911743  0.47252989  0.34923323
   0.08905519  0.77344695  0.40651389
   0.58905520  0.77344693  0.40651389
   0.08904650  0.27344972  0.43752700
   0.58904589  0.27344770  0.43752716
   0.33909600  0.58421631  0.50143550
   0.83909597  0.58421627  0.50143550
   0.33907725  0.96268753  0.50142910
   0.83907738  0.96268756  0.50142910
   0.08906610  0.27343708  0.55121769
   0.58906624  0.27343715  0.55121772
   0.08911189  0.27346320  0.05727859
   0.58911189  0.27346320  0.05727859
   0.33911189  0.77346320  0.05727859
   0.83911189  0.77346320  0.05727859
   0.33911189  0.27346320  0.20352430
   0.83911189  0.27346320  0.20352430
   0.08911189  0.77346320  0.20352430
   0.58911189  0.77346320  0.20352430
   0.08916754  0.27346552  0.35336390
   0.58916751  0.27346553  0.35336403
   0.33911378  0.77346652  0.34588824
   0.83911375  0.77346652  0.34588824
   0.33913696  0.27346410  0.50190343
   0.83913667  0.27346410  0.50190344
   0.08912866  0.77346337  0.48814765
   0.58912861  0.77346338  0.48814765
Direct configuration=    10
   0.08911189  0.77346320  0.00000000
   0.58911189  0.77346320  0.00000000
   0.33911189  0.07763320  0.05727859
   0.83911189  0.07763320  0.05727859
   0.33911189  0.46929320  0.05727859
   0.83911189  0.46929320  0.05727859
   0.08911189  0.77346320  0.11455719
   0.58911189  0.77346320  0.11455719
   0.08911189  0.27346320  0.14624570
   0.58911189  0.27346320  0.14624570
   0.33911189  0.57763320  0.20352430
   0.83911189  0.57763320  0.20352430
   0.33911189  0.96929320  0.20352430
   0.83911189  0.96929320  0.20352430
   0.08911189  0.27346320  0.26080289
   0.58911189  0.27346320  0.26080289
   0.08906528  0.77344583  0.29242932
   0.58906530  0.77344585  0.29242932
   0.33913404  0.07446732  0.34916403
   0.83913394  0.07446735  0.34916405
   0.33911844  0.47248480  0.34915507
   0.83911802  0.47248477  0.34915508
   0.08904289  0.77344253  0.40621450
   0.58904290  0.77344250  0.40621450
   0.08902364  0.27344525  0.43742734
   0.58902312  0.27344321  0.43742742
   0.33909113  0.58561098  0.50207573
   0.83909101  0.58561096  0.50207571
   0.33907427  0.96128626  0.50206825
   0.83907445  0.96128628  0.50206824
   0.08906748  0.27342855  0.55166531
   0.58906763  0.27342870  0.55166538
   0.08911189  0.27346320  0.05727859
   0.58911189  0.27346320  0.05727859
   0.33911189  0.77346320  0.05727859
   0.83911189  0.77346320  0.05727859
   0.33911189  0.27346320  0.20352430
   0.83911189  0.27346320  0.20352430
   0.08911189  0.77346320  0.20352430
   0.58911189  0.77346320  0.20352430
   0.08918196  0.27346411  0.35381919
   0.58918192  0.27346410  0.35381933
   0.33912401  0.77346370  0.34575635
   0.83912400  0.77346370  0.34575635
   0.33912800  0.27346366  0.50250841
   0.83912798  0.27346366  0.50250841
   0.08913235  0.77345947  0.48801066
   0.58913234  0.77345950  0.48801065
Direct configuration=    11
   0.08911189  0.77346320  0.00000000
   0.58911189  0.77346320  0.00000000
   0.33911189  0.07763320  0.05727859
   0.83911189  0.07763320  0.05727859
   0.33911189  0.46929320  0.05727859
   0.83911189  0.46929320  0.05727859
   0.08911189  0.77346320  0.11455719
   0.58911189  0.77346320  0.11455719
   0.08911189  0.27346320  0.14624570
   0.58911189  0.27346320  0.14624570
   0.33911189  0.57763320  0.20352430
   0.83911189  0.57763320  0.20352430
   0.33911189  0.96929320  0.20352430
   0.83911189  0.96929320  0.20352430
   0.08911189  0.27346320  0.26080289
   0.58911189  0.27346320  0.26080289
   0.08906514  0.77344592  0.29238882
   0.58906516  0.77344594  0.29238882
   0.33913433  0.07447065  0.34915943
   0.83913423  0.07447068  0.34915945
   0.33911848  0.47248202  0.34915025
   0.83911806  0.47248199  0.34915027
   0.08904214  0.77344226  0.40619606
   0.58904214  0.77344223  0.40619606
   0.08902223  0.27344497  0.43742121
   0.58902172  0.27344294  0.43742128
   0.33909083  0.58569687  0.50211515
   0.83909070  0.58569685  0.50211514
   0.33907408  0.96119996  0.50210761
   0.83907427  0.96119998  0.50210760
   0.08906756  0.27342803  0.55169288
   0.58906772  0.27342818  0.55169295
   0.08911189  0.27346320  0.05727859
   0.58911189  0.27346320  0.05727859
   0.33911189  0.77346320  0.05727859
   0.83911189  0.77346320  0.05727859
   0.33911189  0.27346320  0.20352430
   0.83911189  0.27346320  0.20352430
   0.08911189  0.77346320  0.20352430
   0.58911189  0.77346320  0.20352430
   0.08918285  0.27346403  0.35384723
   0.58918281  0.27346401  0.35384737
   0.33912464  0.77346352  0.34574823
   0.83912463  0.77346352  0.34574822
   0.33912745  0.27346363  0.50254567
   0.83912745  0.27346363  0.50254567
   0.08913257  0.77345923  0.48800222
   0.58913257  0.77345926  0.48800222
Direct configuration=    12
   0.08911189  0.77346320  0.00000000
   0.58911189  0.77346320  0.00000000
   0.33911189  0.07763320  0.05727859
   0.83911189  0.07763320  0.05727859
   0.33911189  0.46929320  0.05727859
   0.83911189  0.46929320  0.05727859
   0.08911189  0.77346320  0.11455719
   0.58911189  0.77346320  0.11455719
   0.08911189  0.27346320  0.14624570
   0.58911189  0.27346320  0.14624570
   0.33911189  0.57763320  0.20352430
   0.83911189  0.57763320  0.20352430
   0.33911189  0.96929320  0.20352430
   0.83911189  0.96929320  0.20352430
   0.08911189  0.27346320  0.26080289
   0.58911189  0.27346320  0.26080289
   0.08908027  0.77344963  0.29250436
   0.58908029  0.77344967  0.29250436
   0.33913462  0.07380807  0.34914637
   0.83913467  0.07380809  0.34914639
   0.33912289  0.47315842  0.34913719
   0.83912254  0.47315839  0.34913721
   0.08904413  0.77344157  0.40629554
   0.58904413  0.77344154  0.40629555
   0.08900859  0.27344159  0.43746716
   0.58900821  0.27343980  0.43746722
   0.33907740  0.58573352  0.50225818
   0.83907721  0.58573351  0.50225816
   0.33906504  0.96115514  0.50225111
   0.83906525  0.96115515  0.50225110
   0.08906583  0.27342161  0.55199585
   0.58906594  0.27342180  0.55199589
   0.08911189  0.27346320  0.05727859
   0.58911189  0.27346320  0.05727859
   0.33911189  0.77346320  0.05727859
   0.83911189  0.77346320  0.05727859
   0.33911189  0.27346320  0.20352430
   0.83911189  0.27346320  0.20352430
   0.08911189  0.77346320  0.20352430
   0.58911189  0.77346320  0.20352430
   0.08918616  0.27346080  0.35389578
   0.58918614  0.27346077  0.35389588
   0.33913102  0.77345928  0.34572962
   0.83913101  0.77345928  0.34572962
   0.33911833  0.27346905  0.50281353
   0.83911829  0.27346905  0.50281352
   0.08913777  0.77345401  0.48805492
   0.58913778  0.77345407  0.48805493
Direct configuration=    13
   0.08911189  0.77346320  0.00000000
   0.58911189  0.77346320  0.00000000
   0.33911189  0.07763320  0.05727859
   0.83911189  0.07763320  0.05727859
   0.33911189  0.46929320  0.05727859
   0.83911189  0.46929320  0.05727859
   0.08911189  0.77346320  0.11455719
   0.58911189  0.77346320  0.11455719
   0.08911189  0.27346320  0.14624570
   0.58911189  0.27346320  0.14624570
   0.33911189  0.57763320  0.20352430
   0.83911189  0.57763320  0.20352430
   0.33911189  0.96929320  0.20352430
   0.83911189  0.96929320  0.20352430
   0.08911189  0.27346320  0.26080289
   0.58911189  0.27346320  0.26080289
   0.08910114  0.77345475  0.29266373
   0.58910116  0.77345481  0.29266372
   0.33913503  0.07289409  0.34912836
   0.83913528  0.07289411  0.34912838
   0.33912897  0.47409146  0.34911917
   0.83912871  0.47409144  0.34911919
   0.08904687  0.77344061  0.40643277
   0.58904687  0.77344058  0.40643278
   0.08898978  0.27343692  0.43753054
   0.58898957  0.27343546  0.43753059
   0.33905888  0.58578407  0.50245546
   0.83905861  0.58578407  0.50245544
   0.33905257  0.96109330  0.50244906
   0.83905280  0.96109329  0.50244904
   0.08906343  0.27341276  0.55241377
   0.58906348  0.27341301  0.55241377
   0.08911189  0.27346320  0.05727859
   0.58911189  0.27346320  0.05727859
   0.33911189  0.77346320  0.05727859
   0.83911189  0.77346320  0.05727859
   0.33911189  0.27346320  0.20352430
   0.83911189  0.27346320  0.20352430
   0.08911189  0.77346320  0.20352430
   0.58911189  0.77346320  0.20352430
   0.08919073  0.27345636  0.35396275
   0.58919073  0.27345629  0.35396280
   0.33913982  0.77345344  0.34570395
   0.83913981  0.77345344  0.34570395
   0.33910576  0.27347651  0.50318302
   0.83910565  0.27347651  0.50318300
   0.08914495  0.77344682  0.48812762
   0.58914497  0.77344692  0.48812763
Direct configuration=    14
   0.08911189  0.77346320  0.00000000
   0.58911189  0.77346320  0.00000000
   0.33911189  0.07763320  0.05727859
   0.83911189  0.07763320  0.05727859
   0.33911189  0.46929320  0.05727859
   0.83911189  0.46929320  0.05727859
   0.08911189  0.77346320  0.11455719
   0.58911189  0.77346320  0.11455719
   0.08911189  0.27346320  0.14624570
   0.58911189  0.27346320  0.14624570
   0.33911189  0.57763320  0.20352430
   0.83911189  0.57763320  0.20352430
   0.33911189  0.96929320  0.20352430
   0.83911189  0.96929320  0.20352430
   0.08911189  0.27346320  0.26080289
   0.58911189  0.27346320  0.26080289
   0.08911238  0.77346242  0.29272271
   0.58911241  0.77346250  0.29272270
   0.33913552  0.07304735  0.34914236
   0.83913584  0.07304736  0.34914239
   0.33912746  0.47393868  0.34913435
   0.83912725  0.47393867  0.34913437
   0.08905230  0.77344051  0.40662883
   0.58905228  0.77344049  0.40662883
   0.08897518  0.27343580  0.43765031
   0.58897510  0.27343467  0.43765034
   0.33904375  0.58546691  0.50259590
   0.83904347  0.58546691  0.50259588
   0.33903768  0.96139310  0.50258941
   0.83903791  0.96139310  0.50258939
   0.08905939  0.27340767  0.55274599
   0.58905944  0.27340795  0.55274598
   0.08911189  0.27346320  0.05727859
   0.58911189  0.27346320  0.05727859
   0.33911189  0.77346320  0.05727859
   0.83911189  0.77346320  0.05727859
   0.33911189  0.27346320  0.20352430
   0.83911189  0.27346320  0.20352430
   0.08911189  0.77346320  0.20352430
   0.58911189  0.77346320  0.20352430
   0.08919655  0.27345194  0.35402081
   0.58919655  0.27345185  0.35402082
   0.33915385  0.77345053  0.34581639
   0.83915384  0.77345053  0.34581639
   0.33909569  0.27347709  0.50347608
   0.83909568  0.27347709  0.50347606
   0.08914481  0.77344894  0.48823298
   0.58914480  0.77344909  0.48823299
Direct configuration=    15
   0.08911189  0.77346320  0.00000000
   0.58911189  0.77346320  0.00000000
   0.33911189  0.07763320  0.05727859
   0.83911189  0.07763320  0.05727859
   0.33911189  0.46929320  0.05727859
   0.83911189  0.46929320  0.05727859
   0.08911189  0.77346320  0.11455719
   0.58911189  0.77346320  0.11455719
   0.08911189  0.27346320  0.14624570
   0.58911189  0.27346320  0.14624570
   0.33911189  0.57763320  0.20352430
   0.83911189  0.57763320  0.20352430
   0.33911189  0.96929320  0.20352430
   0.83911189  0.96929320  0.20352430
   0.08911189  0.27346320  0.26080289
   0.58911189  0.27346320  0.26080289
   0.08914612  0.77348541  0.29289964
   0.58914616  0.77348556  0.29289963
   0.33913702  0.07350714  0.34918437
   0.83913754  0.07350713  0.34918440
   0.33912295  0.47348035  0.34917990
   0.83912285  0.47348038  0.34917992
   0.08906856  0.77344019  0.40721701
   0.58906852  0.77344021  0.40721700
   0.08893137  0.27343245  0.43800960
   0.58893168  0.27343227  0.43800957
   0.33899837  0.58451543  0.50301723
   0.83899804  0.58451541  0.50301721
   0.33899298  0.96229248  0.50301048
   0.83899323  0.96229251  0.50301045
   0.08904730  0.27339242  0.55374265
   0.58904731  0.27339278  0.55374262
   0.08911189  0.27346320  0.05727859
   0.58911189  0.27346320  0.05727859
   0.33911189  0.77346320  0.05727859
   0.83911189  0.77346320  0.05727859
   0.33911189  0.27346320  0.20352430
   0.83911189  0.27346320  0.20352430
   0.08911189  0.77346320  0.20352430
   0.58911189  0.77346320  0.20352430
   0.08921399  0.27343869  0.35419499
   0.58921400  0.27343850  0.35419487
   0.33919593  0.77344181  0.34615371
   0.83919591  0.77344181  0.34615371
   0.33906548  0.27347880  0.50435527
   0.83906579  0.27347880  0.50435523
   0.08914439  0.77345532  0.48854904
   0.58914430  0.77345560  0.48854906
Direct configuration=    16
   0.08911189  0.77346320  0.00000000
   0.58911189  0.77346320  0.00000000
   0.33911189  0.07763320  0.05727859
   0.83911189  0.07763320  0.05727859
   0.33911189  0.46929320  0.05727859
   0.83911189  0.46929320  0.05727859
   0.08911189  0.77346320  0.11455719
   0.58911189  0.77346320  0.11455719
   0.08911189  0.27346320  0.14624570
   0.58911189  0.27346320  0.14624570
   0.33911189  0.57763320  0.20352430
   0.83911189  0.57763320  0.20352430
   0.33911189  0.96929320  0.20352430
   0.83911189  0.96929320  0.20352430
   0.08911189  0.27346320  0.26080289
   0.58911189  0.27346320  0.26080289
   0.08915287  0.77349278  0.29299776
   0.58915290  0.77349295  0.29299776
   0.33913834  0.07368214  0.34921864
   0.83913884  0.07368212  0.34921867
   0.33912135  0.47330608  0.34921462
   0.83912128  0.47330610  0.34921464
   0.08907247  0.77344014  0.40728950
   0.58907242  0.77344018  0.40728949
   0.08892123  0.27342992  0.43815032
   0.58892161  0.27342998  0.43815026
   0.33898486  0.58454058  0.50313451
   0.83898456  0.58454057  0.50313449
   0.33897732  0.96225305  0.50312795
   0.83897757  0.96225306  0.50312793
   0.08904046  0.27338889  0.55400325
   0.58904045  0.27338924  0.55400321
   0.08911189  0.27346320  0.05727859
   0.58911189  0.27346320  0.05727859
   0.33911189  0.77346320  0.05727859
   0.83911189  0.77346320  0.05727859
   0.33911189  0.27346320  0.20352430
   0.83911189  0.27346320  0.20352430
   0.08911189  0.77346320  0.20352430
   0.58911189  0.77346320  0.20352430
   0.08921902  0.27343475  0.35434870
   0.58921904  0.27343454  0.35434858
   0.33921371  0.77343874  0.34625489
   0.83921370  0.77343874  0.34625490
   0.33905936  0.27347588  0.50458559
   0.83905956  0.27347588  0.50458555
   0.08913486  0.77345405  0.48879982
   0.58913480  0.77345437  0.48879984
Direct configuration=    17
   0.08911189  0.77346320  0.00000000
   0.58911189  0.77346320  0.00000000
   0.33911189  0.07763320  0.05727859
   0.83911189  0.07763320  0.05727859