       N       E                     dE             d eps       ncg     rms          rms(c)
DAV:   1     0.201168926112E+04    0.20117E+04   -0.12925E+05  7520   0.125E+03
DAV:   2    -0.123532890999E+03   -0.21352E+04   -0.20147E+04  9032   0.306E+02
DAV:   3    -0.348593108803E+03   -0.22506E+03   -0.22104E+03  9352   0.102E+02
DAV:   4    -0.354097918017E+03   -0.55048E+01   -0.54608E+01  9120   0.192E+01
DAV:   5    -0.354301531474E+03   -0.20361E+00   -0.20339E+00 10144   0.321E+00    0.653E+01
RMM:   6    -0.233808919142E+03    0.12049E+03   -0.33990E+02  7520   0.383E+01    0.837E+01
RMM:   7    -0.230199608486E+03    0.36093E+01   -0.14234E+01  7595   0.814E+00    0.331E+01
RMM:   8    -0.226513488887E+03    0.36861E+01   -0.14140E+01  7557   0.781E+00    0.258E+01
RMM:   9    -0.233188346854E+03   -0.66749E+01   -0.25667E+00  7533   0.386E+00    0.190E+01
RMM:  10    -0.242497461427E+03   -0.93091E+01   -0.42650E+00  7565   0.417E+00    0.168E+01
RMM:  11    -0.274794839643E+03   -0.32297E+02   -0.16969E+01  7552   0.843E+00    0.164E+01
RMM:  12    -0.286220811801E+03   -0.11426E+02   -0.61664E+00  7523   0.506E+00    0.102E+01
RMM:  13    -0.304537256270E+03   -0.18316E+02   -0.13166E+01  7545   0.706E+00    0.750E+00
RMM:  14    -0.321374055791E+03   -0.16837E+02   -0.23561E+01  7525   0.809E+00    0.414E+00
RMM:  15    -0.324639182839E+03   -0.32651E+01   -0.40022E+00  7520   0.355E+00    0.647E+00
RMM:  16    -0.324470849160E+03    0.16833E+00   -0.28880E-01  7689   0.101E+00    0.236E+00
RMM:  17    -0.324949817366E+03   -0.47897E+00   -0.22398E-01  7520   0.971E-01    0.164E+00
RMM:  18    -0.325265951046E+03   -0.31613E+00   -0.11821E-01  7522   0.600E-01    0.136E+00
RMM:  19    -0.325469601660E+03   -0.20365E+00   -0.45719E-02  7520   0.343E-01    0.923E-01
RMM:  20    -0.325647013659E+03   -0.17741E+00   -0.30087E-02  7530   0.256E-01    0.561E-01
RMM:  21    -0.325725675852E+03   -0.78662E-01   -0.92328E-03  7253   0.144E-01    0.420E-01
RMM:  22    -0.325769783517E+03   -0.44108E-01   -0.39210E-03  6978   0.958E-02    0.297E-01
RMM:  23    -0.325789528811E+03   -0.19745E-01   -0.19370E-03  6639   0.658E-02    0.238E-01
RMM:  24    -0.325792414115E+03   -0.28853E-02   -0.50077E-04  5886   0.341E-02    0.210E-01
RMM:  25    -0.325795290224E+03   -0.28761E-02   -0.11451E-03  6629   0.490E-02    0.153E-01
RMM:  26    -0.325796608873E+03   -0.13186E-02   -0.68614E-04  6326   0.416E-02    0.109E-01
RMM:  27    -0.325797428992E+03   -0.82012E-03   -0.87414E-04  6509   0.415E-02    0.550E-02
RMM:  28    -0.325797615823E+03   -0.18683E-03   -0.82410E-05  4836   0.238E-02    0.338E-02
RMM:  29    -0.325797777903E+03   -0.16208E-03   -0.47143E-05  4317   0.126E-02    0.283E-02
RMM:  30    -0.325797831066E+03   -0.53162E-04   -0.18638E-05  3995   0.103E-02
   1 F= -.33441833E+03 E0= -.33441596E+03  d E =-.334418E+03  mag=     0.9914
       N       E                     dE             d eps       ncg     rms          rms(c)
DAV:   1    -0.325763821010E+03    0.33957E-01   -0.71034E+00  7976   0.445E+00    0.964E-01
RMM:   2    -0.325763362742E+03    0.45827E-03   -0.91019E-02  7215   0.504E-01    0.615E-01
RMM:   3    -0.325760296162E+03    0.30666E-02   -0.90628E-03  6888   0.157E-01    0.226E-01
RMM:   4    -0.325760445125E+03   -0.14896E-03   -0.17182E-03  6432   0.792E-02    0.154E-01
RMM:   5    -0.325760375547E+03    0.69577E-04   -0.32583E-04  5259   0.367E-02
   2 F= -.33438157E+03 E0= -.33437850E+03  d E =0.367603E-01  mag=     0.9929
       N       E                     dE             d eps       ncg     rms          rms(c)
DAV:   1    -0.325799386347E+03   -0.38941E-01   -0.36695E+00  7732   0.336E+00    0.488E-01
RMM:   2    -0.325799387020E+03   -0.67251E-06   -0.31749E-02  7060   0.301E-01    0.329E-01
RMM:   3    -0.325798929054E+03    0.45797E-03   -0.31096E-03  6637   0.989E-02    0.265E-01
RMM:   4    -0.325798660928E+03    0.26813E-03   -0.15377E-03  6489   0.648E-02    0.135E-01
RMM:   5    -0.325798509296E+03    0.15163E-03   -0.19067E-04  5025   0.321E-02    0.617E-02
RMM:   6    -0.325798461912E+03    0.47384E-04   -0.75438E-05  4590   0.183E-02
   3 F= -.33441784E+03 E0= -.33441517E+03  d E =-.362723E-01  mag=     0.9921
       N       E                     dE             d eps       ncg     rms          rms(c)
DAV:   1    -0.325804710396E+03   -0.62011E-02   -0.36638E-01  8084   0.111E+00    0.138E-01
RMM:   2    -0.325805124723E+03   -0.41433E-03   -0.58018E-03  7082   0.160E-01    0.811E-02
RMM:   3    -0.325805103426E+03    0.21297E-04   -0.28561E-04  5187   0.418E-02
   4 F= -.33442445E+03 E0= -.33442184E+03  d E =-.660427E-02  mag=     0.9928
       N       E                     dE             d eps       ncg     rms          rms(c)
DAV:   1    -0.325810506666E+03   -0.53819E-02   -0.78058E-01  7960   0.160E+00    0.225E-01
RMM:   2    -0.325811739005E+03   -0.12323E-02   -0.14341E-02  7280   0.260E-01    0.139E-01
RMM:   3    -0.325811655641E+03    0.83364E-04   -0.59312E-04  5851   0.660E-02
   5 F= -.33443183E+03 E0= -.33442875E+03  d E =-.738777E-02  mag=     0.9939
       N       E                     dE             d eps       ncg     rms          rms(c)
DAV:   1    -0.325813098297E+03   -0.13593E-02   -0.37063E-02  8536   0.389E-01    0.625E-02
RMM:   2    -0.325813156382E+03   -0.58085E-04   -0.72417E-04  6055   0.589E-02    0.470E-02
RMM:   3    -0.325813155493E+03    0.88910E-06   -0.45197E-05  4513   0.195E-02
   6 F= -.33443346E+03 E0= -.33443041E+03  d E =-.162610E-02  mag=     0.9945
       N       E                     dE             d eps       ncg     rms          rms(c)
DAV:   1    -0.325814912005E+03   -0.17556E-02   -0.92890E-02  7912   0.617E-01    0.780E-02
RMM:   2    -0.325815057691E+03   -0.14569E-03   -0.15970E-03  6694   0.874E-02    0.499E-02
RMM:   3    -0.325815052078E+03    0.56126E-05   -0.55841E-05  4488   0.229E-02
   7 F= -.33443566E+03 E0= -.33443244E+03  d E =-.220293E-02  mag=     0.9951
       N       E                     dE             d eps       ncg     rms          rms(c)
DAV:   1    -0.325815863334E+03   -0.80564E-03   -0.13393E-02  8200   0.234E-01    0.291E-02
RMM:   2    -0.325815881256E+03   -0.17922E-04   -0.21285E-04  4764   0.309E-02    0.170E-02
RMM:   3    -0.325815885145E+03   -0.38887E-05   -0.15568E-05  3985   0.119E-02
   8 F= -.33443650E+03 E0= -.33443327E+03  d E =-.836314E-03  mag=     0.9954
       N       E                     dE             d eps       ncg     rms          rms(c)
DAV:   1    -0.325814893621E+03    0.98763E-03   -0.52000E-02  7524   0.426E-01    0.571E-02
RMM:   2    -0.325814906874E+03   -0.13252E-04   -0.46364E-04  5028   0.423E-02    0.351E-02
RMM:   3    -0.325814908984E+03   -0.21106E-05   -0.38312E-05  4047   0.142E-02
   9 F= -.33443578E+03 E0= -.33443248E+03  d E =0.721280E-03  mag=     0.9957
       N       E                     dE             d eps       ncg     rms          rms(c)
DAV:   1    -0.325815036238E+03   -0.12936E-03   -0.56918E-03  8096   0.139E-01    0.246E-02
RMM:   2    -0.325815041304E+03   -0.50659E-05   -0.60231E-05  4185   0.181E-02    0.139E-02
RMM:   3    -0.325815043147E+03   -0.18429E-05   -0.74343E-06  3354   0.794E-03
  10 F= -.33443604E+03 E0= -.33443272E+03  d E =-.265602E-03  mag=     0.9959
       N       E                     dE             d eps       ncg     rms          rms(c)
DAV:   1    -0.325813960554E+03    0.10808E-02   -0.78862E-02  7616   0.529E-01    0.844E-02
RMM:   2    -0.325813952839E+03    0.77155E-05   -0.76460E-04  5450   0.564E-02    0.426E-02
RMM:   3    -0.325813942760E+03    0.10079E-04   -0.68436E-05  4219   0.183E-02
  11 F= -.33443538E+03 E0= -.33443196E+03  d E =0.665879E-03  mag=     0.9961
       N       E                     dE             d eps       ncg     rms          rms(c)
DAV:   1    -0.325813680280E+03    0.27256E-03   -0.60648E-02  7640   0.449E-01    0.826E-02
RMM:   2    -0.325813693749E+03   -0.13469E-04   -0.60490E-04  5512   0.506E-02    0.443E-02
RMM:   3    -0.325813684238E+03    0.95108E-05   -0.47988E-05  4242   0.175E-02
  12 F= -.33443556E+03 E0= -.33443205E+03  d E =-.176833E-03  mag=     0.9964
       N       E                     dE             d eps       ncg     rms          rms(c)
DAV:   1    -0.325813178322E+03    0.51543E-03   -0.10796E-02  7936   0.200E-01    0.315E-02
RMM:   2    -0.325813192122E+03   -0.13801E-04   -0.14195E-04  4516   0.264E-02    0.175E-02
RMM:   3    -0.325813194356E+03   -0.22335E-05   -0.13409E-05  3688   0.106E-02
  13 F= -.33443492E+03 E0= -.33443147E+03  d E =0.635152E-03  mag=     0.9964
       N       E                     dE             d eps       ncg     rms          rms(c)
DAV:   1    -0.325814749088E+03   -0.15570E-02   -0.55553E-02  7504   0.468E-01    0.595E-02
RMM:   2    -0.325814753909E+03   -0.48209E-05   -0.63684E-04  5346   0.513E-02    0.303E-02
RMM:   3    -0.325814749627E+03    0.42815E-05   -0.45421E-05  4216   0.167E-02
  14 F= -.33443623E+03 E0= -.33443282E+03  d E =-.131410E-02  mag=     0.9965
       N       E                     dE             d eps       ncg     rms          rms(c)
DAV:   1    -0.325812880077E+03    0.18738E-02   -0.23508E-01  7536   0.918E-01    0.138E-01
RMM:   2    -0.325812907026E+03   -0.26949E-04   -0.24531E-03  6364   0.969E-02    0.705E-02
RMM:   3    -0.325812865874E+03    0.41152E-04   -0.17647E-04  4686   0.279E-02
  15 F= -.33443508E+03 E0= -.33443148E+03  d E =0.115202E-02  mag=     0.9967
       N       E                     dE             d eps       ncg     rms          rms(c)
DAV:   1    -0.325813274678E+03   -0.36765E-03   -0.12255E-02  7168   0.214E-01    0.343E-02
RMM:   2    -0.325813274705E+03   -0.26401E-07   -0.15246E-04  4468   0.256E-02    0.228E-02
RMM:   3    -0.325813272033E+03    0.26713E-05   -0.14870E-05  3753   0.111E-02
  16 F= -.33443534E+03 E0= -.33443182E+03  d E =-.256194E-03  mag=     0.9968
       N       E                     dE             d eps       ncg     rms          rms(c)
DAV:   1    -0.325814117356E+03   -0.84265E-03   -0.24509E-02  7768   0.295E-01    0.381E-02
RMM:   2    -0.325814148908E+03   -0.31552E-04   -0.40543E-04  5188   0.443E-02    0.234E-02
RMM:   3    -0.325814147380E+03    0.15274E-05   -0.24475E-05  4011   0.154E-02
  17 F= -.33443635E+03 E0= -.33443276E+03  d E =-.101616E-02  mag=     0.9969
       N       E                     dE             d eps       ncg     rms          rms(c)
DAV:   1    -0.325813454543E+03    0.69436E-03   -0.28433E-02  7748   0.306E-01    0.463E-02
RMM:   2    -0.325813497943E+03   -0.43400E-04   -0.47020E-04  5359   0.472E-02    0.276E-02
RMM:   3    -0.325813501946E+03   -0.40029E-05   -0.26830E-05  4179   0.157E-02
  18 F= -.33443549E+03 E0= -.33443198E+03  d E =0.861387E-03  mag=     0.9969
       N       E                     dE             d eps       ncg     rms          rms(c)
DAV:   1    -0.325814143295E+03   -0.64535E-03   -0.59164E-03  7564   0.157E-01    0.191E-02
RMM:   2    -0.325814144282E+03   -0.98739E-06   -0.61482E-05  4163   0.178E-02    0.122E-02
RMM:   3    -0.325814145107E+03   -0.82502E-06   -0.71469E-06  3314   0.757E-03
  19 F= -.33443607E+03 E0= -.33443255E+03  d E =-.575855E-03  mag=     0.9969
       N       E                     dE             d eps       ncg     rms          rms(c)
DAV:   1    -0.325814334189E+03   -0.18991E-03   -0.13078E-03  7800   0.691E-02    0.129E-02
RMM:   2    -0.325814334185E+03    0.41910E-08   -0.11561E-05  3345   0.851E-03    0.782E-03
RMM:   3    -0.325814334285E+03   -0.99957E-07   -0.15719E-06  2103   0.449E-03
  20 F= -.33443619E+03 E0= -.33443268E+03  d E =-.121332E-03  mag=     0.9969
       N       E                     dE             d eps       ncg     rms          rms(c)
DAV:   1    -0.325813395924E+03    0.93826E-03   -0.58022E-02  7572   0.452E-01    0.692E-02
RMM:   2    -0.325813410661E+03   -0.14737E-04   -0.55174E-04  5469   0.531E-02    0.404E-02
RMM:   3    -0.325813404489E+03    0.61713E-05   -0.46223E-05  4223   0.174E-02
  21 F= -.33443573E+03 E0= -.33443211E+03  d E =0.463085E-03  mag=     0.9970
       N       E                     dE             d eps       ncg     rms          rms(c)
DAV:   1    -0.325815146695E+03   -0.17360E-02   -0.51903E-02  7644   0.454E-01    0.596E-02
RMM:   2    -0.325815136756E+03    0.99387E-05   -0.50105E-04  5324   0.488E-02    0.314E-02
RMM:   3    -0.325815132190E+03    0.45665E-05   -0.43499E-05  4202   0.161E-02
  22 F= -.33443713E+03 E0= -.33443358E+03  d E =-.140120E-02  mag=     0.9970
       N       E                     dE             d eps       ncg     rms          rms(c)
DAV:   1    -0.325813679537E+03    0.14572E-02   -0.68237E-02  7552   0.503E-01    0.747E-02
RMM:   2    -0.325813678596E+03    0.94037E-06   -0.59695E-04  5500   0.537E-02    0.394E-02
RMM:   3    -0.325813671254E+03    0.73427E-05   -0.52031E-05  4215   0.174E-02
  23 F= -.33443613E+03 E0= -.33443248E+03  d E =0.997578E-03  mag=     0.9970
       N       E                     dE             d eps       ncg     rms          rms(c)
DAV:   1    -0.325807959068E+03    0.57195E-02   -0.42776E-01  7536   0.117E+00    0.193E-01
RMM:   2    -0.325808177547E+03   -0.21848E-03   -0.43292E-03  6243   0.108E-01    0.123E-01
RMM:   3    -0.325808172770E+03    0.47766E-05   -0.47147E-04  5355   0.424E-02
  24 F= -.33443154E+03 E0= -.33442800E+03  d E =0.459224E-02  mag=     0.9970
       N       E                     dE             d eps       ncg     rms          rms(c)
DAV:   1    -0.325808924125E+03   -0.74658E-03   -0.93794E-03  8408   0.223E-01    0.342E-02
RMM:   2    -0.325808955563E+03   -0.31439E-04   -0.25148E-04  5024   0.362E-02    0.230E-02
RMM:   3    -0.325808965547E+03   -0.99835E-05   -0.17897E-05  4206   0.132E-02
  25 F= -.33443232E+03 E0= -.33442878E+03  d E =-.781148E-03  mag=     0.9969
       N       E                     dE             d eps       ncg     rms          rms(c)
DAV:   1    -0.325810272408E+03   -0.13168E-02   -0.38932E-02  7980   0.450E-01    0.433E-02
RMM:   2    -0.325810334054E+03   -0.61645E-04   -0.70654E-04  5877   0.600E-02    0.258E-02
RMM:   3    -0.325810338944E+03   -0.48908E-05   -0.29245E-05  4249   0.180E-02
  26 F= -.33443372E+03 E0= -.33443016E+03  d E =-.139511E-02  mag=     0.9966
       N       E                     dE             d eps       ncg     rms          rms(c)
DAV:   1    -0.325811777219E+03   -0.14432E-02   -0.11131E-01  7648   0.756E-01    0.686E-02
RMM:   2    -0.325811930968E+03   -0.15375E-03   -0.18593E-03  6616   0.939E-02    0.432E-02
RMM:   3    -0.325811930467E+03    0.50154E-06   -0.59037E-05  4464   0.248E-02
  27 F= -.33443538E+03 E0= -.33443180E+03  d E =-.166407E-02  mag=     0.9963
       N       E                     dE             d eps       ncg     rms          rms(c)
DAV:   1    -0.325812275781E+03   -0.34481E-03   -0.11580E-02  8264   0.233E-01    0.302E-02
RMM:   2    -0.325812293636E+03   -0.17854E-04   -0.20232E-04  4767   0.306E-02    0.223E-02
RMM:   3    -0.325812293542E+03    0.93383E-07   -0.16323E-05  4065   0.118E-02
  28 F= -.33443579E+03 E0= -.33443217E+03  d E =-.408660E-03  mag=     0.9962
       N       E                     dE             d eps       ncg     rms          rms(c)
DAV:   1    -0.325810664408E+03    0.16292E-02   -0.14869E-01  7552   0.832E-01    0.754E-02
RMM:   2    -0.325810892343E+03   -0.22793E-03   -0.26956E-03  6834   0.107E-01    0.441E-02
RMM:   3    -0.325810886279E+03    0.60633E-05   -0.84932E-05  4468   0.275E-02
  29 F= -.33443422E+03 E0= -.33443068E+03  d E =0.156368E-02  mag=     0.9960
       N       E                     dE             d eps       ncg     rms          rms(c)
DAV:   1    -0.325807993546E+03    0.28988E-02   -0.28895E-01  7552   0.118E+00    0.113E-01
RMM:   2    -0.325808397405E+03   -0.40386E-03   -0.50926E-03  7083   0.147E-01    0.658E-02
RMM:   3    -0.325808374143E+03    0.23263E-04   -0.14899E-04  4738   0.355E-02
  30 F= -.33443153E+03 E0= -.33442808E+03  d E =0.269292E-02  mag=     0.9959
       N       E                     dE             d eps       ncg     rms          rms(c)
DAV:   1    -0.325805164787E+03    0.32326E-02   -0.26926E-01  7680   0.114E+00    0.107E-01
RMM:   2    -0.325805541254E+03   -0.37647E-03   -0.46639E-03  7045   0.141E-01    0.612E-02
RMM:   3    -0.325805522898E+03    0.18357E-04   -0.13559E-04  4752   0.334E-02
  31 F= -.33442852E+03 E0= -.33442512E+03  d E =0.301482E-02  mag=     0.9958
       N       E                     dE             d eps       ncg     rms          rms(c)
DAV:   1    -0.325805174793E+03    0.36646E-03   -0.97953E-03  8360   0.226E-01    0.322E-02
RMM:   2    -0.325805189914E+03   -0.15121E-04   -0.18666E-04  4827   0.304E-02    0.228E-02
RMM:   3    -0.325805190099E+03   -0.18515E-06   -0.14736E-05  4062   0.115E-02
  32 F= -.33442816E+03 E0= -.33442476E+03  d E =0.354517E-03  mag=     0.9958
       N       E                     dE             d eps       ncg     rms          rms(c)
DAV:   1    -0.325805723402E+03   -0.53349E-03   -0.92108E-03  7824   0.213E-01    0.221E-02
RMM:   2    -0.325805736117E+03   -0.12715E-04   -0.15384E-04  4511   0.305E-02    0.143E-02
RMM:   3    -0.325805739331E+03   -0.32142E-05   -0.14524E-05  4045   0.125E-02
  33 F= -.33442872E+03 E0= -.33442528E+03  d E =-.554105E-03  mag=     0.9958
       N       E                     dE             d eps       ncg     rms          rms(c)
DAV:   1    -0.325806573445E+03   -0.83733E-03   -0.15141E-02  7992   0.270E-01    0.267E-02
RMM:   2    -0.325806595656E+03   -0.22211E-04   -0.24982E-04  4758   0.359E-02    0.167E-02
RMM:   3    -0.325806597823E+03   -0.21669E-05   -0.17801E-05  4026   0.137E-02
  34 F= -.33442961E+03 E0= -.33442616E+03  d E =-.896266E-03  mag=     0.9958
       N       E                     dE             d eps       ncg     rms          rms(c)
DAV:   1    -0.325807297320E+03   -0.70166E-03   -0.14402E-02  8112   0.265E-01    0.260E-02
RMM:   2    -0.325807316629E+03   -0.19309E-04   -0.24132E-04  4766   0.344E-02    0.155E-02
RMM:   3    -0.325807317781E+03   -0.11518E-05   -0.15174E-05  3969   0.127E-02
  35 F= -.33443038E+03 E0= -.33442689E+03  d E =-.764297E-03  mag=     0.9958
       N       E                     dE             d eps       ncg     rms          rms(c)
DAV:   1    -0.325795123182E+03    0.12193E-01   -0.41759E-01  7540   0.115E+00    0.188E-01
RMM:   2    -0.325795393093E+03   -0.26991E-03   -0.43700E-03  6288   0.107E-01    0.126E-01
RMM:   3    -0.325795397712E+03   -0.46189E-05   -0.40851E-04  5200   0.391E-02
  36 F= -.33441932E+03 E0= -.33441598E+03  d E =0.110544E-01  mag=     0.9956
       N       E                     dE             d eps       ncg     rms          rms(c)
DAV:   1    -0.325797211373E+03   -0.18183E-02   -0.19582E-02  8332   0.309E-01    0.461E-02
RMM:   2    -0.325797242526E+03   -0.31152E-04   -0.37411E-04  5453   0.434E-02    0.419E-02
RMM:   3    -0.325797235933E+03    0.65927E-05   -0.36654E-05  4325   0.162E-02
  37 F= -.33442120E+03 E0= -.33441788E+03  d E =-.187844E-02  mag=     0.9955
       N       E                     dE             d eps       ncg     rms          rms(c)
DAV:   1    -0.325801760888E+03   -0.45184E-02   -0.30472E-01  7524   0.122E+00    0.104E-01
RMM:   2    -0.325802049735E+03   -0.28885E-03   -0.37928E-03  7014   0.141E-01    0.664E-02
RMM:   3    -0.325802056263E+03   -0.65275E-05   -0.14327E-04  4728   0.342E-02
  38 F= -.33442628E+03 E0= -.33442288E+03  d E =-.508377E-02  mag=     0.9950
       N       E                     dE             d eps       ncg     rms          rms(c)
DAV:   1    -0.325803223144E+03   -0.11734E-02   -0.11932E-01  7664   0.782E-01    0.871E-02
RMM:   2    -0.325803350472E+03   -0.12733E-03   -0.15720E-03  6620   0.866E-02    0.597E-02
RMM:   3    -0.325803358447E+03   -0.79745E-05   -0.74867E-05  4566   0.235E-02
  39 F= -.33442783E+03 E0= -.33442428E+03  d E =-.154096E-02  mag=     0.9946
       N       E                     dE             d eps       ncg     rms          rms(c)
DAV:   1    -0.325803772150E+03   -0.42168E-03   -0.57258E-02  8072   0.535E-01    0.601E-02
RMM:   2    -0.325803856347E+03   -0.84197E-04   -0.95202E-04  6244   0.651E-02    0.444E-02
RMM:   3    -0.325803859151E+03   -0.28040E-05   -0.55880E-05  4466   0.207E-02
  40 F= -.33442850E+03 E0= -.33442502E+03  d E =-.679320E-03  mag=     0.9945
       N       E                     dE             d eps       ncg     rms          rms(c)
DAV:   1    -0.325803970990E+03   -0.11464E-03   -0.56261E-03  7840   0.153E-01    0.194E-02
RMM:   2    -0.325803976200E+03   -0.52095E-05   -0.64712E-05  4326   0.189E-02    0.112E-02
RMM:   3    -0.325803977280E+03   -0.10801E-05   -0.68312E-06  3429   0.788E-03
  41 F= -.33442860E+03 E0= -.33442509E+03  d E =-.915670E-04  mag=     0.9945
       N       E                     dE             d eps       ncg     rms          rms(c)
DAV:   1    -0.325803774894E+03    0.20131E-03   -0.93053E-03  7544   0.190E-01    0.190E-02
RMM:   2    -0.325803779570E+03   -0.46759E-05   -0.87233E-05  4233   0.203E-02    0.159E-02
RMM:   3    -0.325803780695E+03   -0.11255E-05   -0.82522E-06  3325   0.807E-03
  42 F= -.33442844E+03 E0= -.33442491E+03  d E =0.157981E-03  mag=     0.9944
       N       E                     dE             d eps       ncg     rms          rms(c)
DAV:   1    -0.325803834684E+03   -0.55114E-04   -0.59912E-03  7952   0.158E-01    0.220E-02
RMM:   2    -0.325803842613E+03   -0.79293E-05   -0.97141E-05  4367   0.218E-02    0.168E-02
RMM:   3    -0.325803843148E+03   -0.53466E-06   -0.10159E-05  3672   0.916E-03
  43 F= -.33442859E+03 E0= -.33442506E+03  d E =-.155475E-03  mag=     0.9944
       N       E                     dE             d eps       ncg     rms          rms(c)
DAV:   1    -0.325803816923E+03    0.25690E-04   -0.19883E-03  7520   0.962E-02    0.121E-02
RMM:   2    -0.325803818288E+03   -0.13652E-05   -0.23496E-05  3781   0.120E-02    0.942E-03
RMM:   3    -0.325803818812E+03   -0.52435E-06   -0.25409E-06  2621   0.549E-03
  44 F= -.33442862E+03 E0= -.33442506E+03  d E =-.254091E-04  mag=     0.9945
       N       E                     dE             d eps       ncg     rms          rms(c)
DAV:   1    -0.325803946342E+03   -0.12805E-03   -0.58802E-02  7552   0.514E-01    0.535E-02
RMM:   2    -0.325803974190E+03   -0.27849E-04   -0.56561E-04  5564   0.533E-02    0.330E-02
RMM:   3    -0.325803972093E+03    0.20973E-05   -0.31351E-05  4141   0.164E-02
  45 F= -.33442850E+03 E0= -.33442503E+03  d E =0.116215E-03  mag=     0.9944
       N       E                     dE             d eps       ncg     rms          rms(c)
DAV:   1    -0.325803832732E+03    0.14146E-03   -0.11133E-01  7532   0.717E-01    0.784E-02
RMM:   2    -0.325803926407E+03   -0.93675E-04   -0.13448E-03  6476   0.808E-02    0.530E-02
RMM:   3    -0.325803923678E+03    0.27293E-05   -0.74234E-05  4455   0.243E-02
  46 F= -.33442884E+03 E0= -.33442527E+03  d E =-.337871E-03  mag=     0.9946
       N       E                     dE             d eps       ncg     rms          rms(c)
DAV:   1    -0.325804212956E+03   -0.28655E-03   -0.14179E-02  7328   0.240E-01    0.274E-02
RMM:   2    -0.325804218468E+03   -0.55115E-05   -0.12359E-04  4480   0.252E-02    0.216E-02
RMM:   3    -0.325804216594E+03    0.18735E-05   -0.12120E-05  3670   0.989E-03
  47 F= -.33442902E+03 E0= -.33442547E+03  d E =-.181534E-03  mag=     0.9946
       N       E                     dE             d eps       ncg     rms          rms(c)
DAV:   1    -0.325796671068E+03    0.75474E-02   -0.29661E-01  7684   0.950E-01    0.165E-01
RMM:   2    -0.325796878781E+03   -0.20771E-03   -0.36732E-03  6448   0.101E-01    0.107E-01
RMM:   3    -0.325796867470E+03    0.11311E-04   -0.30740E-04  5006   0.332E-02
  48 F= -.33442284E+03 E0= -.33441929E+03  d E =0.618550E-02  mag=     0.9945
       N       E                     dE             d eps       ncg     rms          rms(c)
DAV:   1    -0.325797342159E+03   -0.46338E-03   -0.70820E-03  8252   0.186E-01    0.433E-02
RMM:   2    -0.325797360712E+03   -0.18553E-04   -0.23446E-04  4967   0.333E-02    0.487E-02
RMM:   3    -0.325797348410E+03    0.12302E-04   -0.36914E-05  4287   0.158E-02
  49 F= -.33442334E+03 E0= -.33441986E+03  d E =-.499998E-03  mag=     0.9944
       N       E                     dE             d eps       ncg     rms          rms(c)
DAV:   1    -0.325798326803E+03   -0.96609E-03   -0.56704E-02  7760   0.532E-01    0.497E-02
RMM:   2    -0.325798400320E+03   -0.73518E-04   -0.88713E-04  6206   0.695E-02    0.277E-02
RMM:   3    -0.325798409082E+03   -0.87611E-05   -0.38381E-05  4401   0.196E-02
  50 F= -.33442452E+03 E0= -.33442105E+03  d E =-.118689E-02  mag=     0.9943
       N       E                     dE             d eps       ncg     rms          rms(c)
DAV:   1    -0.325798965117E+03   -0.56480E-03   -0.20860E-01  7528   0.105E+00    0.914E-02
RMM:   2    -0.325799223037E+03   -0.25792E-03   -0.31924E-03  7077   0.129E-01    0.481E-02
RMM:   3    -0.325799228851E+03   -0.58141E-05   -0.10039E-04  4624   0.328E-02
  51 F= -.33442564E+03 E0= -.33442207E+03  d E =-.111803E-02  mag=     0.9942
       N       E                     dE             d eps       ncg     rms          rms(c)
DAV:   1    -0.325799129683E+03    0.93354E-04   -0.11804E-01  7872   0.795E-01    0.779E-02
RMM:   2    -0.325799304301E+03   -0.17462E-03   -0.20798E-03  6972   0.101E-01    0.482E-02
RMM:   3    -0.325799304899E+03   -0.59768E-06   -0.84335E-05  4599   0.267E-02
  52 F= -.33442598E+03 E0= -.33442242E+03  d E =-.336280E-03  mag=     0.9944
       N       E                     dE             d eps       ncg     rms          rms(c)
DAV:   1    -0.325799432985E+03   -0.12868E-03   -0.13442E-02  8308   0.262E-01    0.364E-02
RMM:   2    -0.325799452862E+03   -0.19877E-04   -0.27221E-04  4963   0.370E-02    0.246E-02
RMM:   3    -0.325799455176E+03   -0.23138E-05   -0.19039E-05  4152   0.138E-02
  53 F= -.33442620E+03 E0= -.33442261E+03  d E =-.220569E-03  mag=     0.9946
       N       E                     dE             d eps       ncg     rms          rms(c)
DAV:   1    -0.325799269431E+03    0.18343E-03   -0.12753E-02  7992   0.256E-01    0.255E-02
RMM:   2    -0.325799290947E+03   -0.21515E-04   -0.26116E-04  4837   0.363E-02    0.198E-02
RMM:   3    -0.325799291355E+03   -0.40785E-06   -0.16274E-05  4051   0.127E-02
  54 F= -.33442598E+03 E0= -.33442239E+03  d E =0.214558E-03  mag=     0.9946
       N       E                     dE             d eps       ncg     rms          rms(c)
DAV:   1    -0.325799285277E+03    0.56695E-05   -0.75792E-03  7816   0.201E-01    0.181E-02
RMM:   2    -0.325799293424E+03   -0.81466E-05   -0.12391E-04  4307   0.268E-02    0.112E-02
RMM:   3    -0.325799294494E+03   -0.10700E-05   -0.95215E-06  3697   0.104E-02
  55 F= -.33442596E+03 E0= -.33442239E+03  d E =0.227976E-04  mag=     0.9946
       N       E                     dE             d eps       ncg     rms          rms(c)
DAV:   1    -0.325799306536E+03   -0.13112E-04   -0.72733E-04  7576   0.619E-02    0.696E-03
RMM:   2    -0.325799307739E+03   -0.12026E-05   -0.12395E-05  3224   0.832E-03    0.354E-03
RMM:   3    -0.325799307919E+03   -0.18065E-06   -0.48541E-07  1393   0.357E-03
  56 F= -.33442599E+03 E0= -.33442241E+03  d E =-.282996E-04  mag=     0.9946
       N       E                     dE             d eps       ncg     rms          rms(c)
DAV:   1    -0.325799322910E+03   -0.15171E-04   -0.23134E-04  7452   0.350E-02    0.369E-03
RMM:   2    -0.325799323054E+03   -0.14358E-06   -0.35142E-06  1914   0.519E-03    0.237E-03
RMM:   3    -0.325799323110E+03   -0.56862E-07   -0.97803E-08   846   0.326E-03
  57 F= -.33442601E+03 E0= -.33442243E+03  d E =-.241717E-04  mag=     0.9947
       N       E                     dE             d eps       ncg     rms          rms(c)
DAV:   1    -0.325799494981E+03   -0.17193E-03   -0.10177E-01  7528   0.727E-01    0.692E-02
RMM:   2    -0.325799654886E+03   -0.15990E-03   -0.19997E-03  6893   0.994E-02    0.375E-02
RMM:   3    -0.325799650358E+03    0.45284E-05   -0.59583E-05  4421   0.249E-02
  58 F= -.33442651E+03 E0= -.33442287E+03  d E =-.494612E-03  mag=     0.9949
       N       E                     dE             d eps       ncg     rms          rms(c)
DAV:   1    -0.325799541913E+03    0.11297E-03   -0.35789E-02  7584   0.434E-01    0.441E-02
RMM:   2    -0.325799602570E+03   -0.60658E-04   -0.67815E-04  5776   0.592E-02    0.218E-02
RMM:   3    -0.325799603045E+03   -0.47446E-06   -0.28410E-05  4189   0.179E-02
  59 F= -.33442634E+03 E0= -.33442274E+03  d E =0.164202E-03  mag=     0.9949
       N       E                     dE             d eps       ncg     rms          rms(c)
DAV:   1    -0.325794036641E+03    0.55659E-02   -0.46032E-01  7544   0.144E+00    0.177E-01
RMM:   2    -0.325794540020E+03   -0.50338E-03   -0.75112E-03  7194   0.182E-01    0.104E-01
RMM:   3    -0.325794522740E+03    0.17280E-04   -0.36136E-04  5296   0.509E-02
  60 F= -.33442241E+03 E0= -.33441885E+03  d E =0.393256E-02  mag=     0.9952
       N       E                     dE             d eps       ncg     rms          rms(c)
DAV:   1    -0.325795230549E+03   -0.69053E-03   -0.15130E-02  8408   0.245E-01    0.510E-02
RMM:   2    -0.325795251674E+03   -0.21125E-04   -0.33089E-04  5310   0.383E-02    0.440E-02
RMM:   3    -0.325795246042E+03    0.56320E-05   -0.39198E-05  4317   0.165E-02
  61 F= -.33442313E+03 E0= -.33441962E+03  d E =-.718496E-03  mag=     0.9952
       N       E                     dE             d eps       ncg     rms          rms(c)
DAV:   1    -0.325796564925E+03   -0.13133E-02   -0.12749E-01  7640   0.723E-01    0.764E-02
RMM:   2    -0.325796688083E+03   -0.12316E-03   -0.18334E-03  6621   0.931E-02    0.414E-02
RMM:   3    -0.325796685956E+03    0.21273E-05   -0.80392E-05  4553   0.250E-02
  62 F= -.33442463E+03 E0= -.33442110E+03  d E =-.149556E-02  mag=     0.9952
       N       E                     dE             d eps       ncg     rms          rms(c)
DAV:   1    -0.325797375858E+03   -0.68778E-03   -0.61988E-02  7904   0.529E-01    0.619E-02
RMM:   2    -0.325797421703E+03   -0.45845E-04   -0.86485E-04  5898   0.601E-02    0.313E-02
RMM:   3    -0.325797417963E+03    0.37401E-05   -0.36776E-05  4380   0.178E-02
  63 F= -.33442542E+03 E0= -.33442183E+03  d E =-.790166E-03  mag=     0.9951
       N       E                     dE             d eps       ncg     rms          rms(c)
DAV:   1    -0.325798146710E+03   -0.72501E-03   -0.10161E-01  7680   0.678E-01    0.766E-02
RMM:   2    -0.325798248810E+03   -0.10210E-03   -0.16895E-03  6470   0.821E-02    0.366E-02
RMM:   3    -0.325798239667E+03    0.91434E-05   -0.53525E-05  4523   0.212E-02
  64 F= -.33442629E+03 E0= -.33442270E+03  d E =-.877755E-03  mag=     0.9954
       N       E                     dE             d eps       ncg     rms          rms(c)
DAV:   1    -0.325798621899E+03   -0.37309E-03   -0.26835E-02  7960   0.343E-01    0.418E-02
RMM:   2    -0.325798653644E+03   -0.31745E-04   -0.46782E-04  5079   0.423E-02    0.236E-02
RMM:   3    -0.325798654709E+03   -0.10652E-05   -0.20681E-05  4247   0.129E-02
  65 F= -.33442673E+03 E0= -.33442309E+03  d E =-.434997E-03  mag=     0.9956
       N       E                     dE             d eps       ncg     rms          rms(c)
DAV:   1    -0.325799231069E+03   -0.57743E-03   -0.47190E-02  7792   0.447E-01    0.500E-02
RMM:   2    -0.325799301708E+03   -0.70639E-04   -0.88422E-04  5693   0.587E-02    0.260E-02
RMM:   3    -0.325799299854E+03    0.18545E-05   -0.27273E-05  4270   0.166E-02
  66 F= -.33442737E+03 E0= -.33442372E+03  d E =-.639096E-03  mag=     0.9959
       N       E                     dE             d eps       ncg     rms          rms(c)
DAV:   1    -0.325799483780E+03   -0.18207E-03   -0.48364E-03  7992   0.144E-01    0.199E-02
RMM:   2    -0.325799488156E+03   -0.43762E-05   -0.80792E-05  4219   0.181E-02    0.133E-02
RMM:   3    -0.325799487865E+03    0.29114E-06   -0.52610E-06  3142   0.679E-03
  67 F= -.33442756E+03 E0= -.33442389E+03  d E =-.189637E-03  mag=     0.9961
       N       E                     dE             d eps       ncg     rms          rms(c)
DAV:   1    -0.325800200575E+03   -0.71242E-03   -0.76826E-02  7672   0.570E-01    0.638E-02
RMM:   2    -0.325800306188E+03   -0.10561E-03   -0.13823E-03  6009   0.721E-02    0.294E-02
RMM:   3    -0.325800299213E+03    0.69750E-05   -0.38583E-05  4235   0.187E-02
  68 F= -.33442836E+03 E0= -.33442464E+03  d E =-.806544E-03  mag=     0.9964
       N       E                     dE             d eps       ncg     rms          rms(c)
DAV:   1    -0.325800849853E+03   -0.54367E-03   -0.33252E-02  7800   0.374E-01    0.425E-02
RMM:   2    -0.325800891273E+03   -0.41420E-04   -0.57714E-04  5203   0.466E-02    0.233E-02
RMM:   3    -0.325800887967E+03    0.33063E-05   -0.20012E-05  3994   0.132E-02
  69 F= -.33442893E+03 E0= -.33442518E+03  d E =-.568832E-03  mag=     0.9968
       N       E                     dE             d eps       ncg     rms          rms(c)
DAV:   1    -0.325801655171E+03   -0.76390E-03   -0.64273E-02  7616   0.519E-01    0.577E-02
RMM:   2    -0.325801743716E+03   -0.88545E-04   -0.11447E-03  5841   0.654E-02    0.278E-02
RMM:   3    -0.325801737618E+03    0.60977E-05   -0.33400E-05  4133   0.177E-02
  70 F= -.33442975E+03 E0= -.33442595E+03  d E =-.815425E-03  mag=     0.9971
       N       E                     dE             d eps       ncg     rms          rms(c)
DAV:   1    -0.325801451798E+03    0.29192E-03   -0.75279E-03  7688   0.178E-01    0.220E-02
RMM:   2    -0.325801463595E+03   -0.11798E-04   -0.13834E-04  4249   0.232E-02    0.107E-02
RMM:   3    -0.325801463648E+03   -0.52434E-07   -0.74620E-06  3025   0.851E-03
  71 F= -.33442948E+03 E0= -.33442572E+03  d E =0.269923E-03  mag=     0.9972
       N       E                     dE             d eps       ncg     rms          rms(c)
DAV:   1    -0.325800844767E+03    0.61883E-03   -0.35171E-02  7512   0.385E-01    0.424E-02
RMM:   2    -0.325800891621E+03   -0.46854E-04   -0.62113E-04  5076   0.484E-02    0.202E-02
RMM:   3    -0.325800889717E+03    0.19046E-05   -0.21764E-05  3964   0.145E-02
  72 F= -.33442891E+03 E0= -.33442517E+03  d E =0.572971E-03  mag=     0.9972
       N       E                     dE             d eps       ncg     rms          rms(c)
DAV:   1    -0.325801001143E+03   -0.10952E-03   -0.11480E-03  7768   0.722E-02    0.114E-02
RMM:   2    -0.325801003285E+03   -0.21418E-05   -0.23741E-05  3469   0.104E-02    0.715E-03
RMM:   3    -0.325801003289E+03   -0.46966E-08   -0.19547E-06  2022   0.507E-03
  73 F= -.33442901E+03 E0= -.33442526E+03  d E =-.103658E-03  mag=     0.9973
       N       E                     dE             d eps       ncg     rms          rms(c)
DAV:   1    -0.325800706503E+03    0.29678E-03   -0.91469E-03  7244   0.186E-01    0.284E-02
RMM:   2    -0.325800713512E+03   -0.70094E-05   -0.95741E-05  4148   0.190E-02    0.211E-02
RMM:   3    -0.325800712361E+03    0.11517E-05   -0.98337E-06  3315   0.813E-03
  74 F= -.33442888E+03 E0= -.33442517E+03  d E =0.127290E-03  mag=     0.9972
       N       E                     dE             d eps       ncg     rms          rms(c)
DAV:   1    -0.325801125018E+03   -0.41151E-03   -0.19187E-02  7932   0.284E-01    0.357E-02
RMM:   2    -0.325801151634E+03   -0.26616E-04   -0.36414E-04  4641   0.347E-02    0.202E-02
RMM:   3    -0.325801152398E+03   -0.76438E-06   -0.24124E-05  3858   0.125E-02
  75 F= -.33442909E+03 E0= -.33442534E+03  d E =-.207054E-03  mag=     0.9973
       N       E                     dE             d eps       ncg     rms          rms(c)
DAV:   1    -0.325800983484E+03    0.16815E-03   -0.98627E-03  7420   0.175E-01    0.281E-02
RMM:   2    -0.325800995288E+03   -0.11803E-04   -0.20217E-04  4262   0.210E-02    0.179E-02
RMM:   3    -0.325800994825E+03    0.46277E-06   -0.18377E-05  3449   0.947E-03
  76 F= -.33442912E+03 E0= -.33442539E+03  d E =-.337331E-04  mag=     0.9973
       N       E                     dE             d eps       ncg     rms          rms(c)
DAV:   1    -0.325801237462E+03   -0.24217E-03   -0.45438E-03  7608   0.140E-01    0.167E-02
RMM:   2    -0.325801243737E+03   -0.62750E-05   -0.80586E-05  3961   0.181E-02    0.101E-02
RMM:   3    -0.325801243779E+03   -0.42313E-07   -0.49804E-06  2879   0.715E-03
  77 F= -.33442934E+03 E0= -.33442559E+03  d E =-.216745E-03  mag=     0.9973
       N       E                     dE             d eps       ncg     rms          rms(c)
DAV:   1    -0.325802346977E+03   -0.11032E-02   -0.10970E-01  7584   0.687E-01    0.730E-02
RMM:   2    -0.325802497801E+03   -0.15082E-03   -0.19204E-03  6268   0.851E-02    0.338E-02
RMM:   3    -0.325802487091E+03    0.10710E-04   -0.53861E-05  4330   0.220E-02
  78 F= -.33443041E+03 E0= -.33442660E+03  d E =-.107075E-02  mag=     0.9975
       N       E                     dE             d eps       ncg     rms          rms(c)
DAV:   1    -0.325800931592E+03    0.15662E-02   -0.13935E-01  7632   0.770E-01    0.845E-02
RMM:   2    -0.325801136290E+03   -0.20470E-03   -0.25155E-03  6426   0.970E-02    0.387E-02
RMM:   3    -0.325801122463E+03    0.13828E-04   -0.72275E-05  4435   0.249E-02
  79 F= -.33442919E+03 E0= -.33442550E+03  d E =0.121712E-02  mag=     0.9974
       N       E                     dE             d eps       ncg     rms          rms(c)
DAV:   1    -0.325800888770E+03    0.24752E-03   -0.40917E-03  7536   0.136E-01    0.208E-02
RMM:   2    -0.325800892110E+03   -0.33396E-05   -0.71757E-05  4210   0.176E-02    0.135E-02
RMM:   3    -0.325800892145E+03   -0.35612E-07   -0.54612E-06  3057   0.697E-03
  80 F= -.33442899E+03 E0= -.33442527E+03  d E =0.200959E-03  mag=     0.9973
       N       E                     dE             d eps       ncg     rms          rms(c)
DAV:   1    -0.325801315087E+03   -0.42298E-03   -0.15442E-02  7544   0.257E-01    0.281E-02
RMM:   2    -0.325801336145E+03   -0.21058E-04   -0.26894E-04  4518   0.324E-02    0.118E-02
RMM:   3    -0.325801335411E+03    0.73367E-06   -0.11555E-05  3582   0.108E-02
  81 F= -.33442939E+03 E0= -.33442564E+03  d E =-.398124E-03  mag=     0.9973
       N       E                     dE             d eps       ncg     rms          rms(c)
DAV:   1    -0.325800073247E+03    0.12629E-02   -0.10139E-01  7600   0.659E-01    0.727E-02
RMM:   2    -0.325800216276E+03   -0.14303E-03   -0.18115E-03  6200   0.822E-02    0.330E-02
RMM:   3    -0.325800206155E+03    0.10120E-04   -0.50373E-05  4246   0.210E-02
  82 F= -.33442838E+03 E0= -.33442473E+03  d E =0.100558E-02  mag=     0.9972
       N       E                     dE             d eps       ncg     rms          rms(c)
DAV:   1    -0.325800605163E+03   -0.38889E-03   -0.15482E-02  7368   0.256E-01    0.305E-02
RMM:   2    -0.325800628711E+03   -0.23548E-04   -0.28140E-04  4520   0.327E-02    0.147E-02
RMM:   3    -0.325800627728E+03    0.98314E-06   -0.13264E-05  3547   0.112E-02
  83 F= -.33442877E+03 E0= -.33442505E+03  d E =-.386314E-03  mag=     0.9971
       N       E                     dE             d eps       ncg     rms          rms(c)
DAV:   1    -0.325800735050E+03   -0.10634E-03   -0.11006E-03  7352   0.686E-02    0.848E-03
RMM:   2    -0.325800736013E+03   -0.96318E-06   -0.18716E-05  3029   0.910E-03    0.575E-03
RMM:   3    -0.325800735963E+03    0.50612E-07   -0.98250E-07  1571   0.414E-03
  84 F= -.33442888E+03 E0= -.33442517E+03  d E =-.105038E-03  mag=     0.9971
       N       E                     dE             d eps       ncg     rms          rms(c)
DAV:   1    -0.325800310975E+03    0.42504E-03   -0.11392E-02  7124   0.200E-01    0.302E-02
RMM:   2    -0.325800317820E+03   -0.68453E-05   -0.11167E-04  3968   0.184E-02    0.214E-02
RMM:   3    -0.325800317146E+03    0.67470E-06   -0.11982E-05  3227   0.819E-03
  85 F= -.33442861E+03 E0= -.33442493E+03  d E =0.264738E-03  mag=     0.9971
       N       E                     dE             d eps       ncg     rms          rms(c)
DAV:   1    -0.325800589859E+03   -0.27204E-03   -0.51249E-03  7920   0.148E-01    0.181E-02
RMM:   2    -0.325800595896E+03   -0.60366E-05   -0.85377E-05  4117   0.188E-02    0.112E-02
RMM:   3    -0.325800596209E+03   -0.31362E-06   -0.56316E-06  3148   0.744E-03
  86 F= -.33442888E+03 E0= -.33442518E+03  d E =-.264389E-03  mag=     0.9971
       N       E                     dE             d eps       ncg     rms          rms(c)
DAV:   1    -0.325801458857E+03   -0.86296E-03   -0.58916E-02  7596   0.502E-01    0.541E-02
RMM:   2    -0.325801529574E+03   -0.70718E-04   -0.98559E-04  5649   0.606E-02    0.248E-02
RMM:   3    -0.325801524561E+03    0.50132E-05   -0.32438E-05  4152   0.175E-02
  87 F= -.33442977E+03 E0= -.33442604E+03  d E =-.895069E-03  mag=     0.9972
       N       E                     dE             d eps       ncg     rms          rms(c)
DAV:   1    -0.325801628291E+03   -0.98716E-04   -0.81662E-04  7880   0.598E-02    0.122E-02
RMM:   2    -0.325801629108E+03   -0.81698E-06   -0.15215E-05  3344   0.855E-03    0.767E-03
RMM:   3    -0.325801629355E+03   -0.24749E-06   -0.13065E-06  1930   0.442E-03
  88 F= -.33442987E+03 E0= -.33442614E+03  d E =-.989607E-04  mag=     0.9973
       N       E                     dE             d eps       ncg     rms          rms(c)
DAV:   1    -0.325801966069E+03   -0.33696E-03   -0.80076E-03  7564   0.185E-01    0.194E-02
RMM:   2    -0.325801975338E+03   -0.92699E-05   -0.12828E-04  4218   0.226E-02    0.967E-03
RMM:   3    -0.325801975218E+03    0.12008E-06   -0.69225E-06  3281   0.813E-03
  89 F= -.33443019E+03 E0= -.33442645E+03  d E =-.324334E-03  mag=     0.9974
       N       E                     dE             d eps       ncg     rms          rms(c)
DAV:   1    -0.325802198493E+03   -0.22315E-03   -0.33588E-03  7776   0.120E-01    0.138E-02
RMM:   2    -0.325802202215E+03   -0.37217E-05   -0.54886E-05  3785   0.151E-02    0.790E-03
RMM:   3    -0.325802202300E+03   -0.85078E-07   -0.33328E-06  2518   0.591E-03
  90 F= -.33443041E+03 E0= -.33442666E+03  d E =-.215273E-03  mag=     0.9974
       N       E                     dE             d eps       ncg     rms          rms(c)
DAV:   1    -0.325800653933E+03    0.15483E-02   -0.13137E-01  7576   0.751E-01    0.826E-02
RMM:   2    -0.325800837790E+03   -0.18386E-03   -0.23754E-03  6433   0.942E-02    0.370E-02
RMM:   3    -0.325800824468E+03    0.13322E-04   -0.64161E-05  4379   0.236E-02
  91 F= -.33442910E+03 E0= -.33442544E+03  d E =0.130480E-02  mag=     0.9973
       N       E                     dE             d eps       ncg     rms          rms(c)
DAV:   1    -0.325800074926E+03    0.76286E-03   -0.38766E-02  7576   0.409E-01    0.480E-02
RMM:   2    -0.325800120157E+03   -0.45231E-04   -0.66657E-04  5426   0.502E-02    0.253E-02
RMM:   3    -0.325800116562E+03    0.35948E-05   -0.23480E-05  4150   0.141E-02
  92 F= -.33442843E+03 E0= -.33442478E+03  d E =0.672576E-03  mag=     0.9970
       N       E                     dE             d eps       ncg     rms          rms(c)
DAV:   1    -0.325801033286E+03   -0.91313E-03   -0.79679E-02  7576   0.584E-01    0.649E-02
RMM:   2    -0.325801148510E+03   -0.11522E-03   -0.14646E-03  6043   0.738E-02    0.282E-02
RMM:   3    -0.325801140452E+03    0.80584E-05   -0.40813E-05  4152   0.194E-02
  93 F= -.33442940E+03 E0= -.33442569E+03  d E =-.972345E-03  mag=     0.9971
       N       E                     dE             d eps       ncg     rms          rms(c)
DAV:   1    -0.325799434781E+03    0.17137E-02   -0.17338E-01  7696   0.862E-01    0.964E-02
RMM:   2    -0.325799675972E+03   -0.24119E-03   -0.30793E-03  6584   0.107E-01    0.428E-02
RMM:   3    -0.325799658686E+03    0.17286E-04   -0.89100E-05  4576   0.271E-02
  94 F= -.33442800E+03 E0= -.33442441E+03  d E =0.140878E-02  mag=     0.9969
       N       E                     dE             d eps       ncg     rms          rms(c)
DAV:   1    -0.325799853595E+03   -0.17762E-03   -0.33138E-03  7456   0.121E-01    0.216E-02
RMM:   2    -0.325799859825E+03   -0.62298E-05   -0.70059E-05  4225   0.176E-02    0.135E-02
RMM:   3    -0.325799859418E+03    0.40666E-06   -0.67474E-06  3322   0.813E-03
  95 F= -.33442819E+03 E0= -.33442454E+03  d E =-.192287E-03  mag=     0.9968
       N       E                     dE             d eps       ncg     rms          rms(c)
DAV:   1    -0.325799804324E+03    0.55501E-04   -0.22032E-04  7292   0.309E-02    0.503E-03
RMM:   2    -0.325799804675E+03   -0.35079E-06   -0.31971E-06  1704   0.454E-03    0.331E-03
RMM:   3    -0.325799804739E+03   -0.64621E-07   -0.12536E-07  1084   0.299E-03
  96 F= -.33442813E+03 E0= -.33442451E+03  d E =0.532608E-04  mag=     0.9967
       N       E                     dE             d eps       ncg     rms          rms(c)
DAV:   1    -0.325799565389E+03    0.23929E-03   -0.87122E-03  7416   0.186E-01    0.259E-02
RMM:   2    -0.325799572114E+03   -0.67252E-05   -0.13219E-04  4287   0.251E-02    0.229E-02
RMM:   3    -0.325799572001E+03    0.11306E-06   -0.11777E-05  3695   0.104E-02
  97 F= -.33442807E+03 E0= -.33442445E+03  d E =0.599417E-04  mag=     0.9967
       N       E                     dE             d eps       ncg     rms          rms(c)
DAV:   1    -0.325799892151E+03   -0.32004E-03   -0.28984E-02  7748   0.328E-01    0.452E-02
RMM:   2    -0.325799933201E+03   -0.41050E-04   -0.60045E-04  4954   0.415E-02    0.280E-02
RMM:   3    -0.325799934923E+03   -0.17217E-05   -0.47342E-05  4183   0.155E-02
  98 F= -.33442810E+03 E0= -.33442449E+03  d E =-.265359E-04  mag=     0.9966
       N       E                     dE             d eps       ncg     rms          rms(c)
DAV:   1    -0.325800182613E+03   -0.24941E-03   -0.56125E-03  7628   0.149E-01    0.194E-02
RMM:   2    -0.325800189230E+03   -0.66175E-05   -0.10476E-04  4020   0.194E-02    0.943E-03
RMM:   3    -0.325800188590E+03    0.63964E-06   -0.57431E-06  2776   0.704E-03
  99 F= -.33442837E+03 E0= -.33442473E+03  d E =-.270969E-03  mag=     0.9966
       N       E                     dE             d eps       ncg     rms          rms(c)
DAV:   1    -0.325800532617E+03   -0.34339E-03   -0.95748E-03  7536   0.198E-01    0.226E-02
RMM:   2    -0.325800542490E+03   -0.98730E-05   -0.15536E-04  4193   0.244E-02    0.123E-02
RMM:   3    -0.325800541752E+03    0.73728E-06   -0.84596E-06  2933   0.889E-03
 100 F= -.33442872E+03 E0= -.33442507E+03  d E =-.345038E-03  mag=     0.9967
       N       E                     dE             d eps       ncg     rms          rms(c)
DAV:   1    -0.325801082944E+03   -0.54045E-03   -0.23911E-02  7464   0.314E-01    0.344E-02
RMM:   2    -0.325801110847E+03   -0.27903E-04   -0.40018E-04  4800   0.386E-02    0.171E-02
RMM:   3    -0.325801108994E+03    0.18533E-05   -0.17064E-05  3660   0.127E-02
 101 F= -.33442927E+03 E0= -.33442559E+03  d E =-.549655E-03  mag=     0.9968
       N       E                     dE             d eps       ncg     rms          rms(c)
DAV:   1    -0.325801293841E+03   -0.18299E-03   -0.24214E-03  7672   0.101E-01    0.133E-02
RMM:   2    -0.325801296065E+03   -0.22245E-05   -0.39607E-05  3594   0.131E-02    0.821E-03
RMM:   3    -0.325801296120E+03   -0.54497E-07   -0.25486E-06  2159   0.528E-03
 102 F= -.33442944E+03 E0= -.33442577E+03  d E =-.176295E-03  mag=     0.9969
       N       E                     dE             d eps       ncg     rms          rms(c)
DAV:   1    -0.325801349372E+03   -0.53307E-04   -0.19813E-04  7180   0.291E-02    0.439E-03
RMM:   2    -0.325801349512E+03   -0.13983E-06   -0.30288E-06  1799   0.458E-03    0.311E-03
RMM:   3    -0.325801349468E+03    0.43612E-07   -0.13986E-07   992   0.305E-03
 103 F= -.33442950E+03 E0= -.33442582E+03  d E =-.528220E-04  mag=     0.9970
       N       E                     dE             d eps       ncg     rms          rms(c)
DAV:   1    -0.325801526131E+03   -0.17662E-03   -0.26547E-03  7112   0.104E-01    0.132E-02
RMM:   2    -0.325801528201E+03   -0.20706E-05   -0.39488E-05  3333   0.128E-02    0.924E-03
RMM:   3    -0.325801527974E+03    0.22706E-06   -0.26693E-06  1957   0.541E-03
 104 F= -.33442970E+03 E0= -.33442601E+03  d E =-.200616E-03  mag=     0.9971
       N       E                     dE             d eps       ncg     rms          rms(c)
DAV:   1    -0.325801690978E+03   -0.16278E-03   -0.61646E-03  7304   0.172E-01    0.160E-02
RMM:   2    -0.325801699172E+03   -0.81945E-05   -0.11210E-04  4110   0.235E-02    0.122E-02
RMM:   3    -0.325801699350E+03   -0.17820E-06   -0.82256E-06  3347   0.930E-03
 105 F= -.33442973E+03 E0= -.33442606E+03  d E =-.340442E-04  mag=     0.9971
       N       E                     dE             d eps       ncg     rms          rms(c)
DAV:   1    -0.325801577097E+03    0.12208E-03   -0.10725E-03  7472   0.681E-02    0.711E-03
RMM:   2    -0.325801578883E+03   -0.17865E-05   -0.19923E-05  2866   0.908E-03    0.390E-03
RMM:   3    -0.325801579001E+03   -0.11767E-06   -0.74498E-07  1225   0.379E-03
 106 F= -.33442963E+03 E0= -.33442596E+03  d E =0.985022E-04  mag=     0.9971
       N       E                     dE             d eps       ncg     rms          rms(c)
DAV:   1    -0.325802330188E+03   -0.75130E-03   -0.47011E-02  7536   0.445E-01    0.462E-02
RMM:   2    -0.325802396471E+03   -0.66282E-04   -0.83855E-04  5423   0.558E-02    0.203E-02
RMM:   3    -0.325802392810E+03    0.36603E-05   -0.25600E-05  3927   0.159E-02
 107 F= -.33443037E+03 E0= -.33442666E+03  d E =-.740473E-03  mag=     0.9973
       N       E                     dE             d eps       ncg     rms          rms(c)
DAV:   1    -0.325800599919E+03    0.17966E-02   -0.17392E-01  7616   0.856E-01    0.886E-02
RMM:   2    -0.325800861560E+03   -0.26164E-03   -0.31857E-03  6563   0.108E-01    0.387E-02
RMM:   3    -0.325800847701E+03    0.13859E-04   -0.84802E-05  4536   0.266E-02
 108 F= -.33442898E+03 E0= -.33442536E+03  d E =0.139513E-02  mag=     0.9971
       N       E                     dE             d eps       ncg     rms          rms(c)
DAV:   1    -0.325799794280E+03    0.10673E-02   -0.47185E-02  7552   0.461E-01    0.530E-02
RMM:   2    -0.325799847345E+03   -0.53065E-04   -0.70553E-04  5500   0.517E-02    0.296E-02
RMM:   3    -0.325799844501E+03    0.28443E-05   -0.31042E-05  4308   0.150E-02
 109 F= -.33442821E+03 E0= -.33442460E+03  d E =0.769511E-03  mag=     0.9969
       N       E                     dE             d eps       ncg     rms          rms(c)
DAV:   1    -0.325801317118E+03   -0.14698E-02   -0.15991E-01  7688   0.837E-01    0.884E-02
RMM:   2    -0.325801559999E+03   -0.24288E-03   -0.30379E-03  6564   0.104E-01    0.395E-02
RMM:   3    -0.325801551146E+03    0.88534E-05   -0.91410E-05  4523   0.258E-02
 110 F= -.33442952E+03 E0= -.33442584E+03  d E =-.130920E-02  mag=     0.9970
       N       E                     dE             d eps       ncg     rms          rms(c)
DAV:   1    -0.325800812908E+03    0.74709E-03   -0.33722E-02  7692   0.384E-01    0.427E-02
RMM:   2    -0.325800867424E+03   -0.54516E-04   -0.67235E-04  5165   0.486E-02    0.191E-02
RMM:   3    -0.325800867200E+03    0.22351E-06   -0.29839E-05  3904   0.150E-02
 111 F= -.33442906E+03 E0= -.33442544E+03  d E =0.457753E-03  mag=     0.9969
       N       E                     dE             d eps       ncg     rms          rms(c)
DAV:   1    -0.325801233790E+03   -0.36637E-03   -0.84085E-03  7464   0.189E-01    0.211E-02
RMM:   2    -0.325801245309E+03   -0.11520E-04   -0.14802E-04  4274   0.238E-02    0.898E-03
RMM:   3    -0.325801245041E+03    0.26873E-06   -0.66513E-06  3186   0.804E-03
 112 F= -.33442940E+03 E0= -.33442575E+03  d E =-.341508E-03  mag=     0.9969
       N       E                     dE             d eps       ncg     rms          rms(c)
DAV:   1    -0.325802337868E+03   -0.10926E-02   -0.82027E-02  7624   0.588E-01    0.622E-02
RMM:   2    -0.325802445800E+03   -0.10793E-03   -0.14355E-03  5930   0.720E-02    0.284E-02
RMM:   3    -0.325802438041E+03    0.77597E-05   -0.40987E-05  4217   0.193E-02
 113 F= -.33443048E+03 E0= -.33442678E+03  d E =-.107733E-02  mag=     0.9971
       N       E                     dE             d eps       ncg     rms          rms(c)
DAV:   1    -0.325801260363E+03    0.11854E-02   -0.67127E-02  7632   0.533E-01    0.561E-02
RMM:   2    -0.325801356187E+03   -0.95824E-04   -0.11922E-03  5727   0.658E-02    0.244E-02
RMM:   3    -0.325801351436E+03    0.47508E-05   -0.35525E-05  4108   0.181E-02
 114 F= -.33442951E+03 E0= -.33442589E+03  d E =0.969154E-03  mag=     0.9970
       N       E                     dE             d eps       ncg     rms          rms(c)
DAV:   1    -0.325801191088E+03    0.16510E-03   -0.13540E-03  7380   0.787E-02    0.127E-02
RMM:   2    -0.325801192201E+03   -0.11123E-05   -0.24940E-05  3604   0.105E-02    0.831E-03
RMM:   3    -0.325801192367E+03   -0.16641E-06   -0.19776E-06  1885   0.485E-03
 115 F= -.33442938E+03 E0= -.33442574E+03  d E =0.129115E-03  mag=     0.9970
       N       E                     dE             d eps       ncg     rms          rms(c)
DAV:   1    -0.325801538880E+03   -0.34668E-03   -0.75460E-03  7344   0.178E-01    0.191E-02
RMM:   2    -0.325801548421E+03   -0.95416E-05   -0.12718E-04  4061   0.221E-02    0.819E-03
RMM:   3    -0.325801548271E+03    0.15023E-06   -0.61224E-06  2984   0.777E-03
 116 F= -.33442971E+03 E0= -.33442606E+03  d E =-.331490E-03  mag=     0.9970
       N       E                     dE             d eps       ncg     rms          rms(c)
DAV:   1    -0.325801319699E+03    0.22872E-03   -0.28402E-03  7168   0.110E-01    0.116E-02
RMM:   2    -0.325801323290E+03   -0.35917E-05   -0.45453E-05  3396   0.132E-02    0.521E-03
RMM:   3    -0.325801323344E+03   -0.53784E-07   -0.21971E-06  1699   0.495E-03
 117 F= -.33442951E+03 E0= -.33442588E+03  d E =0.201174E-03  mag=     0.9970
       N       E                     dE             d eps       ncg     rms          rms(c)
DAV:   1    -0.325801768511E+03   -0.44522E-03   -0.12652E-02  7360   0.230E-01    0.243E-02
RMM:   2    -0.325801783917E+03   -0.15405E-04   -0.20996E-04  4303   0.283E-02    0.108E-02
RMM:   3    -0.325801783250E+03    0.66648E-06   -0.95198E-06  3305   0.955E-03
 118 F= -.33442994E+03 E0= -.33442628E+03  d E =-.430731E-03  mag=     0.9970
       N       E                     dE             d eps       ncg     rms          rms(c)
DAV:   1    -0.325801407504E+03    0.37641E-03   -0.77556E-03  7264   0.181E-01    0.195E-02
RMM:   2    -0.325801417318E+03   -0.98142E-05   -0.12853E-04  4048   0.218E-02    0.888E-03
RMM:   3    -0.325801417088E+03    0.22980E-06   -0.61022E-06  2709   0.746E-03
 119 F= -.33442960E+03 E0= -.33442597E+03  d E =0.338806E-03  mag=     0.9970
       N       E                     dE             d eps       ncg     rms          rms(c)
DAV:   1    -0.325800984502E+03    0.43282E-03   -0.96257E-03  7400   0.203E-01    0.242E-02
RMM:   2    -0.325800995190E+03   -0.10688E-04   -0.15982E-04  4227   0.250E-02    0.123E-02
RMM:   3    -0.325800994968E+03    0.22210E-06   -0.82276E-06  3098   0.885E-03
 120 F= -.33442922E+03 E0= -.33442561E+03  d E =0.383546E-03  mag=     0.9969
       N       E                     dE             d eps       ncg     rms          rms(c)
DAV:   1    -0.325801326579E+03   -0.33139E-03   -0.72627E-03  7224   0.174E-01    0.188E-02
RMM:   2    -0.325801335641E+03   -0.90623E-05   -0.12091E-04  3966   0.212E-02    0.813E-03
RMM:   3    -0.325801335313E+03    0.32822E-06   -0.57149E-06  2872   0.733E-03
 121 F= -.33442955E+03 E0= -.33442591E+03  d E =-.326820E-03  mag=     0.9969
       N       E                     dE             d eps       ncg     rms          rms(c)
DAV:   1    -0.325801028108E+03    0.30753E-03   -0.84413E-03  7064   0.165E-01    0.273E-02
RMM:   2    -0.325801032420E+03   -0.43113E-05   -0.76542E-05  3628   0.149E-02    0.206E-02
RMM:   3    -0.325801031415E+03    0.10051E-05   -0.75634E-06  2906   0.671E-03
 122 F= -.33442937E+03 E0= -.33442578E+03  d E =0.170783E-03  mag=     0.9969
       N       E                     dE             d eps       ncg     rms          rms(c)
DAV:   1    -0.325801404196E+03   -0.37178E-03   -0.68120E-03  7896   0.170E-01    0.202E-02
RMM:   2    -0.325801412235E+03   -0.80391E-05   -0.11745E-04  4234   0.216E-02    0.106E-02
RMM:   3    -0.325801412426E+03   -0.19071E-06   -0.64588E-06  3242   0.800E-03
 123 F= -.33442974E+03 E0= -.33442612E+03  d E =-.364454E-03  mag=     0.9969
       N       E                     dE             d eps       ncg     rms          rms(c)
DAV:   1    -0.325802324289E+03   -0.91205E-03   -0.44502E-02  7624   0.435E-01    0.464E-02
RMM:   2    -0.325802374516E+03   -0.50227E-04   -0.73446E-04  5367   0.521E-02    0.216E-02
RMM:   3    -0.325802371066E+03    0.34500E-05   -0.26814E-05  4030   0.159E-02
 124 F= -.33443067E+03 E0= -.33442702E+03  d E =-.928448E-03  mag=     0.9970
       N       E                     dE             d eps       ncg     rms          rms(c)
DAV:   1    -0.325801910148E+03    0.46437E-03   -0.99003E-03  7728   0.205E-01    0.222E-02
RMM:   2    -0.325801922855E+03   -0.12706E-04   -0.16511E-04  4271   0.248E-02    0.961E-03
RMM:   3    -0.325801922792E+03    0.62893E-07   -0.85047E-06  3171   0.878E-03
 125 F= -.33443023E+03 E0= -.33442661E+03  d E =0.435116E-03  mag=     0.9970
       N       E                     dE             d eps       ncg     rms          rms(c)
DAV:   1    -0.325801657553E+03    0.26530E-03   -0.36462E-03  7368   0.125E-01    0.150E-02
RMM:   2    -0.325801660440E+03   -0.28871E-05   -0.54693E-05  3702   0.151E-02    0.866E-03
RMM:   3    -0.325801660556E+03   -0.11666E-06   -0.37869E-06  2386   0.620E-03
 126 F= -.33442996E+03 E0= -.33442635E+03  d E =0.267298E-03  mag=     0.9970
       N       E                     dE             d eps       ncg     rms          rms(c)
DAV:   1    -0.325801806450E+03   -0.14601E-03   -0.10761E-03  7320   0.685E-02    0.634E-03
RMM:   2    -0.325801808074E+03   -0.16239E-05   -0.17979E-05  3084   0.889E-03    0.326E-03
RMM:   3    -0.325801808240E+03   -0.16597E-06   -0.75949E-07  1538   0.389E-03
 127 F= -.33443010E+03 E0= -.33442648E+03  d E =-.136615E-03  mag=     0.9970
       N       E                     dE             d eps       ncg     rms          rms(c)
DAV:   1    -0.325801927829E+03   -0.11976E-03   -0.71920E-04  7584   0.563E-02    0.575E-03
RMM:   2    -0.325801928671E+03   -0.84193E-06   -0.11503E-05  2718   0.735E-03    0.267E-03
RMM:   3    -0.325801928734E+03   -0.63581E-07   -0.55815E-07  1498   0.377E-03
 128 F= -.33443021E+03 E0= -.33442659E+03  d E =-.109980E-03  mag=     0.9970
       N       E                     dE             d eps       ncg     rms          rms(c)
DAV:   1    -0.325800554237E+03    0.13744E-02   -0.82009E-02  7520   0.604E-01    0.583E-02
RMM:   2    -0.325800684445E+03   -0.13021E-03   -0.15968E-03  6284   0.801E-02    0.254E-02
RMM:   3    -0.325800679829E+03    0.46160E-05   -0.41603E-05  4215   0.210E-02
 129 F= -.33442909E+03 E0= -.33442549E+03  d E =0.112439E-02  mag=     0.9969
       N       E                     dE             d eps       ncg     rms          rms(c)
DAV:   1    -0.325801802586E+03   -0.11181E-02   -0.77930E-02  7708   0.584E-01    0.559E-02
RMM:   2    -0.325801922270E+03   -0.11968E-03   -0.14843E-03  6129   0.759E-02    0.249E-02
RMM:   3    -0.325801917298E+03    0.49719E-05   -0.42134E-05  4195   0.204E-02
 130 F= -.33443022E+03 E0= -.33442658E+03  d E =-.113794E-02  mag=     0.9970
       N       E                     dE             d eps       ncg     rms          rms(c)
DAV:   1    -0.325801879897E+03    0.42374E-04   -0.37911E-04  7584   0.454E-02    0.930E-03
RMM:   2    -0.325801880398E+03   -0.50138E-06   -0.10155E-05  3251   0.767E-03    0.549E-03
RMM:   3    -0.325801880489E+03   -0.91281E-07   -0.75067E-07  1672   0.409E-03
 131 F= -.33443021E+03 E0= -.33442658E+03  d E =0.170308E-04  mag=     0.9970
       N       E                     dE             d eps       ncg     rms          rms(c)
DAV:   1    -0.325801742905E+03    0.13749E-03   -0.10284E-03  7336   0.665E-02    0.767E-03
RMM:   2    -0.325801743815E+03   -0.91044E-06   -0.15098E-05  2676   0.826E-03    0.469E-03
RMM:   3    -0.325801743861E+03   -0.45151E-07   -0.83662E-07  1269   0.394E-03
 132 F= -.33443007E+03 E0= -.33442645E+03  d E =0.138727E-03  mag=     0.9970
       N       E                     dE             d eps       ncg     rms          rms(c)
DAV:   1    -0.325800247319E+03    0.14965E-02   -0.11117E-01  7520   0.691E-01    0.807E-02
RMM:   2    -0.325800346823E+03   -0.99504E-04   -0.17140E-03  6185   0.806E-02    0.384E-02
RMM:   3    -0.325800333586E+03    0.13236E-04   -0.64330E-05  4412   0.224E-02
 133 F= -.33442862E+03 E0= -.33442510E+03  d E =0.144634E-02  mag=     0.9969
       N       E                     dE             d eps       ncg     rms          rms(c)
DAV:   1    -0.325801848635E+03   -0.15018E-02   -0.14712E-01  7608   0.792E-01    0.895E-02
RMM:   2    -0.325802009869E+03   -0.16123E-03   -0.24213E-03  6391   0.952E-02    0.432E-02
RMM:   3    -0.325801992343E+03    0.17526E-04   -0.82628E-05  4501   0.253E-02
 134 F= -.33443030E+03 E0= -.33442664E+03  d E =-.167585E-02  mag=     0.9970
       N       E                     dE             d eps       ncg     rms          rms(c)
DAV:   1    -0.325801924217E+03    0.85651E-04   -0.93809E-04  7512   0.661E-02    0.158E-02
RMM:   2    -0.325801925882E+03   -0.16652E-05   -0.19334E-05  3767   0.103E-02    0.106E-02
RMM:   3    -0.325801925787E+03    0.95184E-07   -0.22405E-06  2323   0.536E-03
 135 F= -.33443021E+03 E0= -.33442660E+03  d E =0.888516E-04  mag=     0.9970
       N       E                     dE             d eps       ncg     rms          rms(c)
DAV:   1    -0.325801751839E+03    0.17404E-03   -0.12262E-02  7464   0.237E-01    0.316E-02
RMM:   2    -0.325801757065E+03   -0.52265E-05   -0.16481E-04  4395   0.298E-02    0.181E-02
RMM:   3    -0.325801756821E+03    0.24433E-06   -0.15558E-05  3622   0.120E-02
 136 F= -.33442993E+03 E0= -.33442636E+03  d E =0.276251E-03  mag=     0.9970
       N       E                     dE             d eps       ncg     rms          rms(c)
DAV:   1    -0.325801464110E+03    0.29295E-03   -0.53441E-02  7552   0.494E-01    0.651E-02
RMM:   2    -0.325801498886E+03   -0.34776E-04   -0.77233E-04  5899   0.635E-02    0.358E-02
RMM:   3    -0.325801493311E+03    0.55750E-05   -0.47614E-05  4199   0.186E-02
 137 F= -.33442941E+03 E0= -.33442593E+03  d E =0.519908E-03  mag=     0.9970
       N       E                     dE             d eps       ncg     rms          rms(c)
DAV:   1    -0.325801630956E+03   -0.13207E-03   -0.12222E-01  7544   0.725E-01    0.927E-02
RMM:   2    -0.325801738007E+03   -0.10705E-03   -0.21216E-03  6687   0.953E-02    0.557E-02
RMM:   3    -0.325801721446E+03    0.16561E-04   -0.11457E-04  4484   0.262E-02
 138 F= -.33443016E+03 E0= -.33442654E+03  d E =-.746393E-03  mag=     0.9970
       N       E                     dE             d eps       ncg     rms          rms(c)
DAV:   1    -0.325800423689E+03    0.13143E-02   -0.56041E-01  7544   0.145E+00    0.215E-01
RMM:   2    -0.325800941818E+03   -0.51813E-03   -0.95407E-03  7086   0.182E-01    0.122E-01
RMM:   3    -0.325800862254E+03    0.79564E-04   -0.62027E-04  5487   0.482E-02
 139 F= -.33442821E+03 E0= -.33442489E+03  d E =0.194592E-02  mag=     0.9969
       N       E                     dE             d eps       ncg     rms          rms(c)
DAV:   1    -0.325801385006E+03   -0.44319E-03   -0.17451E-02  7508   0.243E-01    0.484E-02
RMM:   2    -0.325801401143E+03   -0.16137E-04   -0.21430E-04  4612   0.276E-02    0.332E-02
RMM:   3    -0.325801396061E+03    0.50823E-05   -0.17911E-05  3833   0.108E-02
 140 F= -.33442886E+03 E0= -.33442538E+03  d E =-.647664E-03  mag=     0.9969
       N       E                     dE             d eps       ncg     rms          rms(c)
DAV:   1    -0.325801149055E+03    0.25209E-03   -0.40691E-03  7576   0.135E-01    0.169E-02
RMM:   2    -0.325801154733E+03   -0.56779E-05   -0.60802E-05  4035   0.171E-02    0.133E-02
RMM:   3    -0.325801154716E+03    0.17208E-07   -0.44166E-06  2958   0.663E-03
 141 F= -.33442864E+03 E0= -.33442523E+03  d E =0.217116E-03  mag=     0.9969
       N       E                     dE             d eps       ncg     rms          rms(c)
DAV:   1    -0.325802031241E+03   -0.87651E-03   -0.59394E-02  7540   0.498E-01    0.533E-02
RMM:   2    -0.325802091331E+03   -0.60091E-04   -0.80254E-04  5703   0.597E-02    0.358E-02
RMM:   3    -0.325802083805E+03    0.75269E-05   -0.37954E-05  4194   0.181E-02
 142 F= -.33442944E+03 E0= -.33442592E+03  d E =-.799212E-03  mag=     0.9970
       N       E                     dE             d eps       ncg     rms          rms(c)
DAV:   1    -0.325802434716E+03   -0.34338E-03   -0.78175E-03  8056   0.183E-01    0.207E-02
RMM:   2    -0.325802446292E+03   -0.11576E-04   -0.14966E-04  4352   0.246E-02    0.139E-02
RMM:   3    -0.325802446565E+03   -0.27295E-06   -0.83104E-06  3467   0.862E-03
 143 F= -.33442978E+03 E0= -.33442628E+03  d E =-.335943E-03  mag=     0.9970
       N       E                     dE             d eps       ncg     rms          rms(c)
DAV:   1    -0.325803102582E+03   -0.65629E-03   -0.29934E-02  7592   0.358E-01    0.352E-02
RMM:   2    -0.325803143465E+03   -0.40883E-04   -0.54380E-04  5170   0.458E-02    0.204E-02
RMM:   3    -0.325803141270E+03    0.21946E-05   -0.21993E-05  3952   0.144E-02
 144 F= -.33443042E+03 E0= -.33442691E+03  d E =-.644898E-03  mag=     0.9971
       N       E                     dE             d eps       ncg     rms          rms(c)
DAV:   1    -0.325802925274E+03    0.21819E-03   -0.37020E-03  7696   0.129E-01    0.143E-02
RMM:   2    -0.325802931881E+03   -0.66066E-05   -0.68799E-05  3954   0.167E-02    0.598E-03
RMM:   3    -0.325802932317E+03   -0.43632E-06   -0.39076E-06  2539   0.630E-03
 145 F= -.33443022E+03 E0= -.33442671E+03  d E =0.206829E-03  mag=     0.9971
       N       E                     dE             d eps       ncg     rms          rms(c)
DAV:   1    -0.325802986356E+03   -0.54476E-04   -0.90186E-04  7632   0.648E-02    0.609E-03
RMM:   2    -0.325802987955E+03   -0.15983E-05   -0.14748E-05  3297   0.880E-03    0.316E-03
RMM:   3    -0.325802988345E+03   -0.39008E-06   -0.87806E-07  1813   0.406E-03
 146 F= -.33443029E+03 E0= -.33442678E+03  d E =-.717497E-04  mag=     0.9971
       N       E                     dE             d eps       ncg     rms          rms(c)
DAV:   1    -0.325803317867E+03   -0.32991E-03   -0.63690E-03  7536   0.164E-01    0.169E-02
RMM:   2    -0.325803325244E+03   -0.73775E-05   -0.10816E-04  4129   0.210E-02    0.931E-03
RMM:   3    -0.325803325048E+03    0.19632E-06   -0.64583E-06  3036   0.786E-03
 147 F= -.33443060E+03 E0= -.33442708E+03  d E =-.314970E-03  mag=     0.9971
       N       E                     dE             d eps       ncg     rms          rms(c)
DAV:   1    -0.325802877929E+03    0.44731E-03   -0.12804E-02  7376   0.236E-01    0.245E-02
RMM:   2    -0.325802895414E+03   -0.17485E-04   -0.22947E-04  4326   0.296E-02    0.124E-02
RMM:   3    -0.325802895194E+03    0.22034E-06   -0.11453E-05  3443   0.103E-02
 148 F= -.33443017E+03 E0= -.33442667E+03  d E =0.434670E-03  mag=     0.9971
       N       E                     dE             d eps       ncg     rms          rms(c)
DAV:   1    -0.325801392395E+03    0.15030E-02   -0.12775E-01  7568   0.748E-01    0.863E-02
RMM:   2    -0.325801568467E+03   -0.17607E-03   -0.24145E-03  6483   0.962E-02    0.427E-02
RMM:   3    -0.325801555460E+03    0.13007E-04   -0.87381E-05  4525   0.256E-02
 149 F= -.33442877E+03 E0= -.33442534E+03  d E =0.139905E-02  mag=     0.9969
       N       E                     dE             d eps       ncg     rms          rms(c)
DAV:   1    -0.325800984836E+03    0.58363E-03   -0.22874E-02  7504   0.320E-01    0.441E-02
RMM:   2    -0.325801008559E+03   -0.23723E-04   -0.42774E-04  5140   0.410E-02    0.258E-02
RMM:   3    -0.325801006554E+03    0.20045E-05   -0.24488E-05  4144   0.136E-02
 150 F= -.33442816E+03 E0= -.33442474E+03  d E =0.607228E-03  mag=     0.9967
       N       E                     dE             d eps       ncg     rms          rms(c)
DAV:   1    -0.325801947864E+03   -0.93931E-03   -0.74480E-02  7552   0.570E-01    0.641E-02
RMM:   2    -0.325802053743E+03   -0.10588E-03   -0.14149E-03  6014   0.730E-02    0.312E-02
RMM:   3    -0.325802046193E+03    0.75494E-05   -0.51801E-05  4247   0.205E-02
 151 F= -.33442926E+03 E0= -.33442577E+03  d E =-.109193E-02  mag=     0.9968
       N       E                     dE             d eps       ncg     rms          rms(c)
DAV:   1    -0.325799926595E+03    0.21271E-02   -0.20965E-01  7648   0.951E-01    0.988E-02
RMM:   2    -0.325800232067E+03   -0.30547E-03   -0.39269E-03  6705   0.121E-01    0.476E-02
RMM:   3    -0.325800214258E+03    0.17809E-04   -0.12640E-04  4705   0.315E-02
 152 F= -.33442748E+03 E0= -.33442411E+03  d E =0.178061E-02  mag=     0.9966
       N       E                     dE             d eps       ncg     rms          rms(c)
DAV:   1    -0.325800952421E+03   -0.72035E-03   -0.39670E-02  7664   0.412E-01    0.429E-02
RMM:   2    -0.325801020824E+03   -0.68403E-04   -0.78828E-04  5459   0.545E-02    0.197E-02
RMM:   3    -0.325801019037E+03    0.17867E-05   -0.27704E-05  4066   0.164E-02
 153 F= -.33442823E+03 E0= -.33442479E+03  d E =-.753132E-03  mag=     0.9966
       N       E                     dE             d eps       ncg     rms          rms(c)
DAV:   1    -0.325801253787E+03   -0.23296E-03   -0.36020E-03  7392   0.126E-01    0.134E-02
RMM:   2    -0.325801257341E+03   -0.35533E-05   -0.65521E-05  3892   0.168E-02    0.131E-02
RMM:   3    -0.325801257289E+03    0.51939E-07   -0.39433E-06  2661   0.642E-03
 154 F= -.33442844E+03 E0= -.33442502E+03  d E =-.216672E-03  mag=     0.9966
       N       E                     dE             d eps       ncg     rms          rms(c)
DAV:   1    -0.325801264699E+03   -0.73583E-05   -0.41703E-05  5052   0.143E-02    0.605E-03
RMM:   2    -0.325801264910E+03   -0.21126E-06   -0.21504E-06  1921   0.478E-03    0.379E-03
RMM:   3    -0.325801264946E+03   -0.35918E-07   -0.16020E-07   900   0.330E-03
 155 F= -.33442844E+03 E0= -.33442502E+03  d E =0.125464E-05  mag=     0.9966
       N       E                     dE             d eps       ncg     rms          rms(c)
DAV:   1    -0.325800755279E+03    0.50963E-03   -0.19511E-02  7368   0.289E-01    0.394E-02
RMM:   2    -0.325800772697E+03   -0.17417E-04   -0.33490E-04  4701   0.371E-02    0.205E-02
RMM:   3    -0.325800770807E+03    0.18902E-05   -0.20961E-05  3735   0.135E-02
 156 F= -.33442787E+03 E0= -.33442450E+03  d E =0.575303E-03  mag=     0.9965
       N       E                     dE             d eps       ncg     rms          rms(c)
DAV:   1    -0.325800506850E+03    0.26585E-03   -0.28699E-02  7520   0.325E-01    0.567E-02
RMM:   2    -0.325800518544E+03   -0.11694E-04   -0.39702E-04  5092   0.420E-02    0.304E-02
RMM:   3    -0.325800514926E+03    0.36184E-05   -0.35246E-05  4040   0.154E-02
 157 F= -.33442736E+03 E0= -.33442406E+03  d E =0.507989E-03  mag=     0.9965
       N       E                     dE             d eps       ncg     rms          rms(c)
DAV:   1    -0.325800663356E+03   -0.14481E-03   -0.33670E-02  7668   0.375E-01    0.483E-02
RMM:   2    -0.325800698830E+03   -0.35474E-04   -0.52461E-04  5312   0.490E-02    0.286E-02
RMM:   3    -0.325800696669E+03    0.21610E-05   -0.32933E-05  4168   0.166E-02
 158 F= -.33442723E+03 E0= -.33442398E+03  d E =0.130540E-03  mag=     0.9965
       N       E                     dE             d eps       ncg     rms          rms(c)
DAV:   1    -0.325801005930E+03   -0.30710E-03   -0.21711E-02  8152   0.313E-01    0.298E-02
RMM:   2    -0.325801037554E+03   -0.31624E-04   -0.38802E-04  4964   0.418E-02    0.188E-02
RMM:   3    -0.325801037436E+03    0.11722E-06   -0.18640E-05  3941   0.140E-02
 159 F= -.33442735E+03 E0= -.33442413E+03  d E =-.118057E-03  mag=     0.9966
       N       E                     dE             d eps       ncg     rms          rms(c)
DAV:   1    -0.325801457838E+03   -0.42028E-03   -0.15976E-02  7560   0.270E-01    0.239E-02
RMM:   2    -0.325801481159E+03   -0.23321E-04   -0.30091E-04  4757   0.360E-02    0.163E-02
RMM:   3    -0.325801480775E+03    0.38447E-06   -0.13784E-05  3778   0.120E-02
 160 F= -.33442767E+03 E0= -.33442443E+03  d E =-.320826E-03  mag=     0.9967
       N       E                     dE             d eps       ncg     rms          rms(c)
DAV:   1    -0.325801522434E+03   -0.41275E-04   -0.88130E-04  7432   0.596E-02    0.901E-03
RMM:   2    -0.325801523740E+03   -0.13061E-05   -0.12095E-05  3258   0.794E-03    0.617E-03
RMM:   3    -0.325801524295E+03   -0.55439E-06   -0.86886E-07  1893   0.410E-03
 161 F= -.33442776E+03 E0= -.33442451E+03  d E =-.907003E-04  mag=     0.9967
       N       E                     dE             d eps       ncg     rms          rms(c)
DAV:   1    -0.325801335828E+03    0.18791E-03   -0.15880E-02  7488   0.254E-01    0.348E-02
RMM:   2    -0.325801345174E+03   -0.93463E-05   -0.21105E-04  4465   0.303E-02    0.201E-02
RMM:   3    -0.325801344489E+03    0.68575E-06   -0.21532E-05  3773   0.125E-02
 162 F= -.33442739E+03 E0= -.33442419E+03  d E =0.372451E-03  mag=     0.9967
       N       E                     dE             d eps       ncg     rms          rms(c)
DAV:   1    -0.325801040136E+03    0.30504E-03   -0.69835E-02  7520   0.545E-01    0.722E-02
RMM:   2    -0.325801097787E+03   -0.57651E-04   -0.10245E-03  5994   0.673E-02    0.391E-02
RMM:   3    -0.325801091221E+03    0.65657E-05   -0.64756E-05  4217   0.194E-02
 163 F= -.33442669E+03 E0= -.33442357E+03  d E =0.697568E-03  mag=     0.9967
       N       E                     dE             d eps       ncg     rms          rms(c)
DAV:   1    -0.325801514353E+03   -0.41657E-03   -0.18900E-02  7400   0.276E-01    0.371E-02
RMM:   2    -0.325801524404E+03   -0.10051E-04   -0.26598E-04  4587   0.334E-02    0.214E-02
RMM:   3    -0.325801522476E+03    0.19279E-05   -0.23243E-05  3736   0.129E-02
 164 F= -.33442727E+03 E0= -.33442408E+03  d E =-.582375E-03  mag=     0.9968
       N       E                     dE             d eps       ncg     rms          rms(c)
DAV:   1    -0.325800784556E+03    0.73985E-03   -0.73990E-02  7520   0.542E-01    0.730E-02
RMM:   2    -0.325800828607E+03   -0.44051E-04   -0.10278E-03  5957   0.629E-02    0.414E-02
RMM:   3    -0.325800818729E+03    0.98775E-05   -0.70046E-05  4277   0.192E-02
 165 F= -.33442619E+03 E0= -.33442313E+03  d E =0.108058E-02  mag=     0.9968
       N       E                     dE             d eps       ncg     rms          rms(c)
DAV:   1    -0.325800808502E+03    0.20105E-04   -0.31700E-05  5640   0.200E-02    0.121E-02
RMM:   2    -0.325800808923E+03   -0.42111E-06   -0.85535E-06  3278   0.848E-03    0.879E-03
RMM:   3    -0.325800808959E+03   -0.36256E-07   -0.18990E-06  2060   0.507E-03
 166 F= -.33442617E+03 E0= -.33442309E+03  d E =0.182278E-04  mag=     0.9968
       N       E                     dE             d eps       ncg     rms          rms(c)
DAV:   1    -0.325800850114E+03   -0.41191E-04   -0.55141E-03  7296   0.163E-01    0.170E-02
RMM:   2    -0.325800857058E+03   -0.69442E-05   -0.95896E-05  4098   0.222E-02    0.104E-02
RMM:   3    -0.325800857821E+03   -0.76298E-06   -0.78573E-06  3320   0.898E-03
 167 F= -.33442609E+03 E0= -.33442303E+03  d E =0.805987E-04  mag=     0.9968
       N       E                     dE             d eps       ncg     rms          rms(c)
DAV:   1    -0.325800661095E+03    0.19596E-03   -0.15194E-01  7520   0.849E-01    0.880E-02
RMM:   2    -0.325800854559E+03   -0.19346E-03   -0.26676E-03  6873   0.112E-01    0.490E-02
RMM:   3    -0.325800844169E+03    0.10390E-04   -0.10513E-04  4466   0.283E-02
 168 F= -.33442538E+03 E0= -.33442238E+03  d E =0.709507E-03  mag=     0.9969
       N       E                     dE             d eps       ncg     rms          rms(c)
DAV:   1    -0.325800917717E+03   -0.63158E-04   -0.22225E-01  7520   0.102E+00    0.997E-02
RMM:   2    -0.325801192214E+03   -0.27450E-03   -0.38359E-03  7004   0.133E-01    0.576E-02
RMM:   3    -0.325801175831E+03    0.16383E-04   -0.15735E-04  4628   0.333E-02
 169 F= -.33442651E+03 E0= -.33442339E+03  d E =-.112924E-02  mag=     0.9969
       N       E                     dE             d eps       ncg     rms          rms(c)
DAV:   1    -0.325801062094E+03    0.13012E-03   -0.71900E-02  7564   0.578E-01    0.502E-02
RMM:   2    -0.325801180262E+03   -0.11817E-03   -0.13509E-03  6346   0.779E-02    0.291E-02
RMM:   3    -0.325801180490E+03   -0.22797E-06   -0.53102E-05  4213   0.213E-02
 170 F= -.33442593E+03 E0= -.33442284E+03  d E =0.584721E-03  mag=     0.9970
       N       E                     dE             d eps       ncg     rms          rms(c)
DAV:   1    -0.325801494627E+03   -0.31437E-03   -0.81971E-03  7144   0.179E-01    0.227E-02
RMM:   2    -0.325801501884E+03   -0.72576E-05   -0.12941E-04  4152   0.226E-02    0.146E-02
RMM:   3    -0.325801501340E+03    0.54479E-06   -0.11134E-05  3243   0.950E-03
 171 F= -.33442635E+03 E0= -.33442321E+03  d E =-.426040E-03  mag=     0.9970
       N       E                     dE             d eps       ncg     rms          rms(c)
DAV:   1    -0.325801191548E+03    0.31034E-03   -0.42951E-03  7272   0.146E-01    0.146E-02
RMM:   2    -0.325801197946E+03   -0.63976E-05   -0.81914E-05  4058   0.197E-02    0.877E-03
RMM:   3    -0.325801198411E+03   -0.46515E-06   -0.54473E-06  3085   0.743E-03
 172 F= -.33442608E+03 E0= -.33442297E+03  d E =0.276416E-03  mag=     0.9970
       N       E                     dE             d eps       ncg     rms          rms(c)
DAV:   1    -0.325800441507E+03    0.75644E-03   -0.26515E-02  7544   0.367E-01    0.370E-02
RMM:   2    -0.325800480086E+03   -0.38579E-04   -0.52451E-04  5380   0.493E-02    0.191E-02
RMM:   3    -0.325800479499E+03    0.58651E-06   -0.22350E-05  3968   0.159E-02
 173 F= -.33442550E+03 E0= -.33442243E+03  d E =0.578803E-03  mag=     0.9970
       N       E                     dE             d eps       ncg     rms          rms(c)
DAV:   1    -0.325801690984E+03   -0.12109E-02   -0.91515E-02  7592   0.679E-01    0.690E-02
RMM:   2    -0.325801836457E+03   -0.14547E-03   -0.18741E-03  6577   0.914E-02    0.338E-02
RMM:   3    -0.325801828092E+03    0.83650E-05   -0.61558E-05  4311   0.252E-02
 174 F= -.33442662E+03 E0= -.33442345E+03  d E =-.112310E-02  mag=     0.9970
       N       E                     dE             d eps       ncg     rms          rms(c)
DAV:   1    -0.325801749002E+03    0.87455E-04   -0.63925E-04  7792   0.572E-02    0.144E-02
RMM:   2    -0.325801750518E+03   -0.15158E-05   -0.16467E-05  3395   0.916E-03    0.766E-03
RMM:   3    -0.325801750877E+03   -0.35958E-06   -0.14072E-06  2108   0.460E-03
 175 F= -.33442658E+03 E0= -.33442344E+03  d E =0.365375E-04  mag=     0.9971
       N       E                     dE             d eps       ncg     rms          rms(c)
DAV:   1    -0.325801421054E+03    0.32946E-03   -0.58115E-03  7248   0.164E-01    0.223E-02
RMM:   2    -0.325801426031E+03   -0.49779E-05   -0.95218E-05  4073   0.213E-02    0.132E-02
RMM:   3    -0.325801426206E+03   -0.17448E-06   -0.85646E-06  3156   0.897E-03
 176 F= -.33442624E+03 E0= -.33442312E+03  d E =0.345495E-03  mag=     0.9970
       N       E                     dE             d eps       ncg     rms          rms(c)
DAV:   1    -0.325800299576E+03    0.11265E-02   -0.88180E-02  7520   0.602E-01    0.927E-02
RMM:   2    -0.325800352491E+03   -0.52915E-04   -0.13310E-03  6323   0.737E-02    0.482E-02
[...]
DAV:   1    -0.325795955756E+03    0.25640E-03   -0.86956E-03  7300   0.200E-01    0.201E-02
RMM:   2    -0.325795968487E+03   -0.12731E-04   -0.14469E-04  4384   0.263E-02    0.921E-03
RMM:   3    -0.325795969450E+03   -0.96320E-06   -0.94415E-06  3487   0.989E-03
 615 F= -.33441724E+03 E0= -.33441498E+03  d E =0.206488E-03  mag=     0.9887
       N       E                     dE             d eps       ncg     rms          rms(c)
DAV:   1    -0.325795725220E+03    0.24327E-03   -0.89611E-03  7248   0.201E-01    0.245E-02
RMM:   2    -0.325795733656E+03   -0.84360E-05   -0.13244E-04  4236   0.253E-02    0.161E-02
RMM:   3    -0.325795734113E+03   -0.45752E-06   -0.10098E-05  3573   0.969E-03
 616 F= -.33441705E+03 E0= -.33441483E+03  d E =0.190866E-03  mag=     0.9886
       N       E                     dE             d eps       ncg     rms          rms(c)
DAV:   1    -0.325795396885E+03    0.33677E-03   -0.18066E-02  7448   0.287E-01    0.364E-02
RMM:   2    -0.325795419382E+03   -0.22497E-04   -0.27570E-04  4803   0.382E-02    0.327E-02
RMM:   3    -0.325795416543E+03    0.28392E-05   -0.26852E-05  4235   0.155E-02
 617 F= -.33441683E+03 E0= -.33441455E+03  d E =0.216812E-03  mag=     0.9884
       N       E                     dE             d eps       ncg     rms          rms(c)
DAV:   1    -0.325795405876E+03    0.13506E-04   -0.22604E-03  7424   0.108E-01    0.190E-02
RMM:   2    -0.325795407396E+03   -0.15202E-05   -0.39348E-05  3987   0.153E-02    0.115E-02
RMM:   3    -0.325795408170E+03   -0.77473E-06   -0.46854E-06  3332   0.701E-03
 618 F= -.33441687E+03 E0= -.33441465E+03  d E =-.403779E-04  mag=     0.9883
       N       E                     dE             d eps       ncg     rms          rms(c)
DAV:   1    -0.325795470097E+03   -0.62701E-04   -0.10186E-02  7448   0.228E-01    0.262E-02
RMM:   2    -0.325795481689E+03   -0.11592E-04   -0.17236E-04  4454   0.303E-02    0.179E-02
RMM:   3    -0.325795482418E+03   -0.72845E-06   -0.17705E-05  3849   0.130E-02
 619 F= -.33441705E+03 E0= -.33441476E+03  d E =-.172849E-03  mag=     0.9883
       N       E                     dE             d eps       ncg     rms          rms(c)
DAV:   1    -0.325795573387E+03   -0.91697E-04   -0.27786E-02  7520   0.375E-01    0.430E-02
RMM:   2    -0.325795601734E+03   -0.28348E-04   -0.48450E-04  5451   0.494E-02    0.231E-02
RMM:   3    -0.325795600207E+03    0.15271E-05   -0.28308E-05  4120   0.167E-02
 620 F= -.33441732E+03 E0= -.33441507E+03  d E =-.270978E-03  mag=     0.9883
       N       E                     dE             d eps       ncg     rms          rms(c)
DAV:   1    -0.325795601719E+03    0.15869E-07   -0.89908E-06  5544   0.947E-03    0.741E-03
RMM:   2    -0.325795602157E+03   -0.43837E-06   -0.16337E-06  2180   0.433E-03    0.585E-03
RMM:   3    -0.325795602259E+03   -0.10239E-06   -0.21096E-07  1231   0.342E-03
 621 F= -.33441732E+03 E0= -.33441505E+03  d E =-.163031E-05  mag=     0.9883
       N       E                     dE             d eps       ncg     rms          rms(c)
DAV:   1    -0.325795593196E+03    0.89606E-05   -0.17509E-03  7168   0.917E-02    0.978E-03
RMM:   2    -0.325795594739E+03   -0.15423E-05   -0.27666E-05  3857   0.123E-02    0.746E-03
RMM:   3    -0.325795595103E+03   -0.36407E-06   -0.23186E-06  2349   0.544E-03
 622 F= -.33441728E+03 E0= -.33441504E+03  d E =0.413852E-04  mag=     0.9883
       N       E                     dE             d eps       ncg     rms          rms(c)
DAV:   1    -0.325795618120E+03   -0.23381E-04   -0.67103E-02  7520   0.536E-01    0.643E-02
RMM:   2    -0.325795674330E+03   -0.56210E-04   -0.10526E-03  6448   0.704E-02    0.456E-02
RMM:   3    -0.325795673908E+03    0.42206E-06   -0.65226E-05  4440   0.203E-02
 623 F= -.33441721E+03 E0= -.33441502E+03  d E =0.698340E-04  mag=     0.9885
       N       E                     dE             d eps       ncg     rms          rms(c)
DAV:   1    -0.325795643706E+03    0.30624E-04   -0.36887E-03  7824   0.125E-01    0.265E-02
RMM:   2    -0.325795649533E+03   -0.58271E-05   -0.78664E-05  4448   0.207E-02    0.192E-02
RMM:   3    -0.325795649236E+03    0.29710E-06   -0.10613E-05  3818   0.921E-03
 624 F= -.33441723E+03 E0= -.33441491E+03  d E =-.167986E-04  mag=     0.9886
       N       E                     dE             d eps       ncg     rms          rms(c)
DAV:   1    -0.325795622966E+03    0.26567E-04   -0.78779E-02  7536   0.560E-01    0.646E-02
RMM:   2    -0.325795697009E+03   -0.74043E-04   -0.12570E-03  6536   0.751E-02    0.420E-02
RMM:   3    -0.325795693497E+03    0.35122E-05   -0.66909E-05  4471   0.212E-02
 625 F= -.33441737E+03 E0= -.33441504E+03  d E =-.141165E-03  mag=     0.9885
       N       E                     dE             d eps       ncg     rms          rms(c)
DAV:   1    -0.325795747144E+03   -0.50135E-04   -0.32536E-03  7768   0.128E-01    0.211E-02
RMM:   2    -0.325795761226E+03   -0.14082E-04   -0.78246E-05  4366   0.211E-02    0.332E-02
RMM:   3    -0.325795751084E+03    0.10142E-04   -0.12631E-05  3909   0.104E-02
 626 F= -.33441737E+03 E0= -.33441512E+03  d E =0.449066E-06  mag=     0.9885
       N       E                     dE             d eps       ncg     rms          rms(c)
DAV:   1    -0.325795842863E+03   -0.81637E-04   -0.16159E-03  7736   0.857E-02    0.984E-03
RMM:   2    -0.325795844753E+03   -0.18902E-05   -0.28152E-05  3529   0.114E-02    0.577E-03
RMM:   3    -0.325795844643E+03    0.11025E-06   -0.15154E-06  1934   0.464E-03
 627 F= -.33441747E+03 E0= -.33441522E+03  d E =-.101481E-03  mag=     0.9885
       N       E                     dE             d eps       ncg     rms          rms(c)
DAV:   1    -0.325795778374E+03    0.66379E-04   -0.10035E-03  7208   0.673E-02    0.703E-03
RMM:   2    -0.325795779578E+03   -0.12042E-05   -0.15828E-05  3051   0.867E-03    0.516E-03
RMM:   3    -0.325795779758E+03   -0.17975E-06   -0.78892E-07  1483   0.399E-03
 628 F= -.33441739E+03 E0= -.33441512E+03  d E =0.746513E-04  mag=     0.9885
       N       E                     dE             d eps       ncg     rms          rms(c)
DAV:   1    -0.325795839363E+03   -0.59785E-04   -0.84465E-04  7288   0.636E-02    0.600E-03
RMM:   2    -0.325795840548E+03   -0.11849E-05   -0.14108E-05  3047   0.849E-03    0.481E-03
RMM:   3    -0.325795840606E+03   -0.57786E-07   -0.52949E-07  1245   0.384E-03
 629 F= -.33441746E+03 E0= -.33441520E+03  d E =-.669989E-04  mag=     0.9885
       N       E                     dE             d eps       ncg     rms          rms(c)
DAV:   1    -0.325796039351E+03   -0.19880E-03   -0.95697E-03  7440   0.212E-01    0.216E-02
RMM:   2    -0.325796050415E+03   -0.11064E-04   -0.15918E-04  4258   0.261E-02    0.110E-02
RMM:   3    -0.325796050192E+03    0.22312E-06   -0.84852E-06  3260   0.894E-03
 630 F= -.33441770E+03 E0= -.33441542E+03  d E =-.237879E-03  mag=     0.9886
       N       E                     dE             d eps       ncg     rms          rms(c)
DAV:   1    -0.325795705667E+03    0.34475E-03   -0.22090E-02  7520   0.321E-01    0.317E-02
RMM:   2    -0.325795734925E+03   -0.29258E-04   -0.38365E-04  4730   0.399E-02    0.141E-02
RMM:   3    -0.325795734906E+03    0.18517E-07   -0.16324E-05  3853   0.125E-02
 631 F= -.33441734E+03 E0= -.33441511E+03  d E =0.355760E-03  mag=     0.9885
       N       E                     dE             d eps       ncg     rms          rms(c)
DAV:   1    -0.325795475602E+03    0.25932E-03   -0.12042E-02  7432   0.238E-01    0.268E-02
RMM:   2    -0.325795490793E+03   -0.15191E-04   -0.20807E-04  4562   0.306E-02    0.217E-02
RMM:   3    -0.325795489955E+03    0.83793E-06   -0.14623E-05  3950   0.113E-02
 632 F= -.33441708E+03 E0= -.33441479E+03  d E =0.263090E-03  mag=     0.9884
       N       E                     dE             d eps       ncg     rms          rms(c)
DAV:   1    -0.325795925905E+03   -0.43511E-03   -0.55527E-02  7520   0.508E-01    0.523E-02
RMM:   2    -0.325796005282E+03   -0.79377E-04   -0.10042E-03  5900   0.638E-02    0.226E-02
RMM:   3    -0.325796003536E+03    0.17450E-05   -0.32810E-05  4182   0.174E-02
 633 F= -.33441765E+03 E0= -.33441542E+03  d E =-.568683E-03  mag=     0.9886
       N       E                     dE             d eps       ncg     rms          rms(c)
DAV:   1    -0.325795982641E+03    0.22640E-04   -0.78715E-05  5544   0.244E-02    0.127E-02
RMM:   2    -0.325795984887E+03   -0.22462E-05   -0.12385E-05  3544   0.105E-02    0.177E-02
RMM:   3    -0.325795982267E+03    0.26208E-05   -0.32914E-06  2613   0.615E-03
 634 F= -.33441763E+03 E0= -.33441535E+03  d E =0.199352E-04  mag=     0.9886
       N       E                     dE             d eps       ncg     rms          rms(c)
DAV:   1    -0.325796012298E+03   -0.27411E-04   -0.13916E-04  6272   0.260E-02    0.414E-03
RMM:   2    -0.325796012519E+03   -0.22026E-06   -0.28371E-06  2046   0.502E-03    0.284E-03
RMM:   3    -0.325796012564E+03   -0.45238E-07   -0.11764E-07   806   0.321E-03
 635 F= -.33441765E+03 E0= -.33441538E+03  d E =-.195411E-04  mag=     0.9886
       N       E                     dE             d eps       ncg     rms          rms(c)
DAV:   1    -0.325796331341E+03   -0.31882E-03   -0.14205E-02  7504   0.252E-01    0.352E-02
RMM:   2    -0.325796347121E+03   -0.15780E-04   -0.22191E-04  4662   0.339E-02    0.318E-02
RMM:   3    -0.325796347498E+03   -0.37761E-06   -0.18008E-05  3942   0.130E-02
 636 F= -.33441791E+03 E0= -.33441567E+03  d E =-.262296E-03  mag=     0.9888
       N       E                     dE             d eps       ncg     rms          rms(c)
DAV:   1    -0.325796236302E+03    0.11082E-03   -0.15691E-03  7176   0.835E-02    0.163E-02
RMM:   2    -0.325796245176E+03   -0.88741E-05   -0.38758E-05  4183   0.132E-02    0.299E-02
RMM:   3    -0.325796236358E+03    0.88178E-05   -0.65868E-06  3103   0.749E-03
 637 F= -.33441782E+03 E0= -.33441555E+03  d E =0.880791E-04  mag=     0.9887
       N       E                     dE             d eps       ncg     rms          rms(c)
DAV:   1    -0.325796114686E+03    0.13049E-03   -0.22108E-03  6904   0.980E-02    0.138E-02
RMM:   2    -0.325796116411E+03   -0.17257E-05   -0.31051E-05  3640   0.127E-02    0.110E-02
RMM:   3    -0.325796116579E+03   -0.16787E-06   -0.28674E-06  2222   0.561E-03
 638 F= -.33441771E+03 E0= -.33441543E+03  d E =0.107219E-03  mag=     0.9887
       N       E                     dE             d eps       ncg     rms          rms(c)
DAV:   1    -0.325794515809E+03    0.16006E-02   -0.23336E-01  7520   0.100E+00    0.133E-01
RMM:   2    -0.325794768328E+03   -0.25252E-03   -0.35118E-03  7144   0.127E-01    0.993E-02
RMM:   3    -0.325794780683E+03   -0.12355E-04   -0.25019E-04  4961   0.364E-02
 639 F= -.33441660E+03 E0= -.33441411E+03  d E =0.111406E-02  mag=     0.9880
       N       E                     dE             d eps       ncg     rms          rms(c)
DAV:   1    -0.325795404454E+03   -0.63613E-03   -0.65938E-02  7696   0.539E-01    0.709E-02
RMM:   2    -0.325795549568E+03   -0.14511E-03   -0.12134E-03  6546   0.745E-02    0.102E-01
RMM:   3    -0.325795480710E+03    0.68858E-04   -0.10520E-04  4561   0.245E-02
 640 F= -.33441722E+03 E0= -.33441505E+03  d E =-.620917E-03  mag=     0.9883
       N       E                     dE             d eps       ncg     rms          rms(c)
DAV:   1    -0.325794601518E+03    0.94805E-03   -0.69742E-02  7548   0.547E-01    0.662E-02
RMM:   2    -0.325794690489E+03   -0.88971E-04   -0.10802E-03  6177   0.704E-02    0.492E-02
RMM:   3    -0.325794694291E+03   -0.38017E-05   -0.62118E-05  4397   0.213E-02
 641 F= -.33441656E+03 E0= -.33441421E+03  d E =0.665924E-03  mag=     0.9879
       N       E                     dE             d eps       ncg     rms          rms(c)
DAV:   1    -0.325794761246E+03   -0.70757E-04   -0.20557E-03  7480   0.103E-01    0.223E-02
RMM:   2    -0.325794774814E+03   -0.13568E-04   -0.64137E-05  4370   0.180E-02    0.371E-02
RMM:   3    -0.325794763999E+03    0.10815E-04   -0.10495E-05  3598   0.917E-03
 642 F= -.33441666E+03 E0= -.33441443E+03  d E =-.992978E-04  mag=     0.9880
       N       E                     dE             d eps       ncg     rms          rms(c)
DAV:   1    -0.325794975591E+03   -0.20078E-03   -0.17561E-02  7588   0.292E-01    0.407E-02
RMM:   2    -0.325794997729E+03   -0.22138E-04   -0.32003E-04  5006   0.405E-02    0.366E-02
RMM:   3    -0.325794997491E+03    0.23878E-06   -0.19767E-05  4043   0.143E-02
 643 F= -.33441698E+03 E0= -.33441476E+03  d E =-.321610E-03  mag=     0.9881
       N       E                     dE             d eps       ncg     rms          rms(c)
DAV:   1    -0.325795034144E+03   -0.36415E-04   -0.23455E-04  7588   0.386E-02    0.227E-02
RMM:   2    -0.325795047358E+03   -0.13214E-04   -0.30308E-05  4117   0.119E-02    0.384E-02
RMM:   3    -0.325795030455E+03    0.16903E-04   -0.10620E-05  3492   0.919E-03
 644 F= -.33441701E+03 E0= -.33441475E+03  d E =-.365844E-04  mag=     0.9881
       N       E                     dE             d eps       ncg     rms          rms(c)
DAV:   1    -0.325795189722E+03   -0.14236E-03   -0.76791E-03  7528   0.187E-01    0.256E-02
RMM:   2    -0.325795197758E+03   -0.80351E-05   -0.12403E-04  4189   0.237E-02    0.115E-02
RMM:   3    -0.325795197920E+03   -0.16259E-06   -0.93406E-06  3410   0.974E-03
 645 F= -.33441723E+03 E0= -.33441495E+03  d E =-.219811E-03  mag=     0.9882
       N       E                     dE             d eps       ncg     rms          rms(c)
DAV:   1    -0.325794941585E+03    0.25617E-03   -0.16117E-02  7528   0.270E-01    0.287E-02
RMM:   2    -0.325794961466E+03   -0.19881E-04   -0.26660E-04  4507   0.334E-02    0.140E-02
RMM:   3    -0.325794962617E+03   -0.11509E-05   -0.14378E-05  3862   0.114E-02
 646 F= -.33441692E+03 E0= -.33441470E+03  d E =0.309599E-03  mag=     0.9881
       N       E                     dE             d eps       ncg     rms          rms(c)
DAV:   1    -0.325795052638E+03   -0.91172E-04   -0.25629E-03  7176   0.110E-01    0.116E-02
RMM:   2    -0.325795057321E+03   -0.46834E-05   -0.45378E-05  3994   0.143E-02    0.953E-03
RMM:   3    -0.325795056946E+03    0.37514E-06   -0.33173E-06  2398   0.559E-03
 647 F= -.33441705E+03 E0= -.33441477E+03  d E =-.125566E-03  mag=     0.9881
       N       E                     dE             d eps       ncg     rms          rms(c)
DAV:   1    -0.325794988601E+03    0.68720E-04   -0.18679E-03  7384   0.895E-02    0.967E-03
RMM:   2    -0.325794991455E+03   -0.28536E-05   -0.32264E-05  3785   0.123E-02    0.956E-03
RMM:   3    -0.325794991364E+03    0.90444E-07   -0.21612E-06  2035   0.509E-03
 648 F= -.33441695E+03 E0= -.33441469E+03  d E =0.950429E-04  mag=     0.9881
       N       E                     dE             d eps       ncg     rms          rms(c)
DAV:   1    -0.325795153541E+03   -0.16209E-03   -0.84330E-03  7568   0.194E-01    0.225E-02
RMM:   2    -0.325795163955E+03   -0.10414E-04   -0.13778E-04  4308   0.245E-02    0.144E-02
RMM:   3    -0.325795164580E+03   -0.62499E-06   -0.98427E-06  3500   0.928E-03
 649 F= -.33441718E+03 E0= -.33441495E+03  d E =-.221305E-03  mag=     0.9882
       N       E                     dE             d eps       ncg     rms          rms(c)
DAV:   1    -0.325794401443E+03    0.76251E-03   -0.97131E-02  7520   0.670E-01    0.737E-02
RMM:   2    -0.325794529263E+03   -0.12782E-03   -0.16823E-03  6385   0.829E-02    0.402E-02
RMM:   3    -0.325794531056E+03   -0.17925E-05   -0.67498E-05  4412   0.232E-02
 650 F= -.33441642E+03 E0= -.33441407E+03  d E =0.757565E-03  mag=     0.9879
       N       E                     dE             d eps       ncg     rms          rms(c)
DAV:   1    -0.325794578127E+03   -0.48863E-04   -0.10160E-03  7492   0.761E-02    0.197E-02
RMM:   2    -0.325794589767E+03   -0.11640E-04   -0.43126E-05  4239   0.148E-02    0.361E-02
RMM:   3    -0.325794578631E+03    0.11135E-04   -0.94522E-06  3465   0.887E-03
 651 F= -.33441648E+03 E0= -.33441426E+03  d E =-.631119E-04  mag=     0.9879
       N       E                     dE             d eps       ncg     rms          rms(c)
DAV:   1    -0.325794580068E+03    0.96981E-05   -0.91178E-06  5512   0.858E-03    0.323E-03
RMM:   2    -0.325794580120E+03   -0.51499E-07   -0.20652E-07  1230   0.334E-03    0.250E-03
RMM:   3    -0.325794580148E+03   -0.28300E-07    0.00000E+00   782   0.311E-03
 652 F= -.33441648E+03 E0= -.33441425E+03  d E =-.105499E-05  mag=     0.9879
       N       E                     dE             d eps       ncg     rms          rms(c)
DAV:   1    -0.325794569381E+03    0.10739E-04   -0.23051E-04  6816   0.349E-02    0.401E-03
RMM:   2    -0.325794569897E+03   -0.51606E-06   -0.47812E-06  2391   0.608E-03    0.511E-03
RMM:   3    -0.325794569780E+03    0.11790E-06   -0.18926E-07   895   0.343E-03
 653 F= -.33441647E+03 E0= -.33441424E+03  d E =0.166583E-04  mag=     0.9878
       N       E                     dE             d eps       ncg     rms          rms(c)
DAV:   1    -0.325794467384E+03    0.10251E-03   -0.21724E-03  7112   0.110E-01    0.143E-02
RMM:   2    -0.325794470229E+03   -0.28450E-05   -0.40216E-05  3880   0.160E-02    0.153E-02
RMM:   3    -0.325794470101E+03    0.12761E-06   -0.37049E-06  2776   0.678E-03
 654 F= -.33441635E+03 E0= -.33441412E+03  d E =0.111531E-03  mag=     0.9877
       N       E                     dE             d eps       ncg     rms          rms(c)
DAV:   1    -0.325794725542E+03   -0.25531E-03   -0.12949E-02  7528   0.256E-01    0.331E-02
RMM:   2    -0.325794741677E+03   -0.16135E-04   -0.21669E-04  4680   0.341E-02    0.345E-02
RMM:   3    -0.325794738660E+03    0.30172E-05   -0.16870E-05  3978   0.126E-02
 655 F= -.33441668E+03 E0= -.33441447E+03  d E =-.325387E-03  mag=     0.9879
       N       E                     dE             d eps       ncg     rms          rms(c)
DAV:   1    -0.325794939221E+03   -0.19754E-03   -0.96187E-03  7488   0.217E-01    0.312E-02
RMM:   2    -0.325794947908E+03   -0.86873E-05   -0.15596E-04  4402   0.281E-02    0.199E-02
RMM:   3    -0.325794949371E+03   -0.14634E-05   -0.15568E-05  3877   0.121E-02
 656 F= -.33441694E+03 E0= -.33441464E+03  d E =-.260562E-03  mag=     0.9879
       N       E                     dE             d eps       ncg     rms          rms(c)
DAV:   1    -0.325794925215E+03    0.22692E-04   -0.32782E-04  7436   0.451E-02    0.866E-03
RMM:   2    -0.325794926472E+03   -0.12565E-05   -0.99047E-06  3648   0.770E-03    0.885E-03
RMM:   3    -0.325794925958E+03    0.51391E-06   -0.51170E-07  1278   0.351E-03
 657 F= -.33441691E+03 E0= -.33441467E+03  d E =0.331485E-04  mag=     0.9880
       N       E                     dE             d eps       ncg     rms          rms(c)
DAV:   1    -0.325794965747E+03   -0.39275E-04   -0.62746E-04  7296   0.545E-02    0.567E-03
RMM:   2    -0.325794966487E+03   -0.73957E-06   -0.10647E-05  2698   0.739E-03    0.368E-03
RMM:   3    -0.325794966571E+03   -0.84914E-07   -0.41759E-07  1118   0.356E-03
 658 F= -.33441696E+03 E0= -.33441471E+03  d E =-.489996E-04  mag=     0.9880
       N       E                     dE             d eps       ncg     rms          rms(c)
DAV:   1    -0.325795118672E+03   -0.15219E-03   -0.83710E-03  7280   0.198E-01    0.189E-02
RMM:   2    -0.325795129155E+03   -0.10483E-04   -0.14205E-04  4189   0.247E-02    0.979E-03
RMM:   3    -0.325795129114E+03    0.40374E-07   -0.73397E-06  3090   0.843E-03
 659 F= -.33441715E+03 E0= -.33441489E+03  d E =-.193040E-03  mag=     0.9881
       N       E                     dE             d eps       ncg     rms          rms(c)
DAV:   1    -0.325794276381E+03    0.85277E-03   -0.13821E-01  7536   0.799E-01    0.777E-02
RMM:   2    -0.325794481731E+03   -0.20535E-03   -0.25215E-03  6773   0.101E-01    0.395E-02
RMM:   3    -0.325794477440E+03    0.42914E-05   -0.76379E-05  4463   0.254E-02
 660 F= -.33441638E+03 E0= -.33441404E+03  d E =0.769869E-03  mag=     0.9879
