dopGeO2_Ir_ts                           
           1
     0.000000    0.000000    5.844679
     4.468477   -4.468477    0.000000
    15.506300   15.506300    0.000000
   H    C    O    Ge   Ir
   4   1  32  15   1
Direct configuration=     1
   0.63147272  0.36105532  0.55409983
   0.63178124  0.72247448  0.60020440
   0.47277624  0.48697471  0.61711095
   0.78142927  0.48279133  0.61821170
   0.62915891  0.54921889  0.59598931
   1.13081166  0.56969810  1.00000000
   0.63081166  0.56969810  1.00000000
   0.38081166  0.26355810  0.05586496
   0.88081166  0.26355810  0.05586496
   0.38081166 -0.12416190  0.05586496
   0.88081166 -0.12416190  0.05586496
   1.13081166  0.56969810  0.11172992
   0.63081166  0.56969810  0.11172992
   1.13081166  0.06969810  0.14408584
   0.63081166  0.06969810  0.14408584
   0.38081166  0.37583810  0.19995080
   0.88081166  0.37583810  0.19995080
   0.38081166  0.76355810  0.19995080
   0.88081166  0.76355810  0.19995080
   1.13081166  0.06969810  0.25581576
   0.63081166  0.06969810  0.25581576
   1.13082283  0.56313319  0.28786356
   0.63083512  0.56251866  0.28729682
   0.38080908  0.26113896  0.34690064
   0.88081850  0.26110614  0.34689270
   0.38174432 -0.12806294  0.34150839
   0.87994890 -0.12809512  0.34152940
   1.13088823  0.57944933  0.39706048
   0.63081983  0.57693867  0.40015214
   1.13089819  0.04014038  0.43321007
   0.63084746  0.04548315  0.43493008
   0.36220239  0.36504105  0.48601968
   0.89974337  0.36503129  0.48597023
   0.36850130  0.74601041  0.50185754
   0.89272192  0.74594761  0.50175698
   1.13086184  0.07034346  0.54763047
   0.63096508  0.09221942  0.54715325
   1.13081166  0.06969810  0.05586496
   0.63081166  0.06969810  0.05586496
   0.38081166  0.56969810  0.05586496
   0.88081166  0.56969810  0.05586496
   0.38081166  0.06969810  0.19995080
   0.88081166  0.06969810  0.19995080
   1.13081166  0.56969810  0.19995080
   0.63081166  0.56969810  0.19995080
   1.13083170  0.06420457  0.34564144
   0.63082546  0.06470744  0.34667441
   0.38478507  0.56717209  0.34260495
   0.87690423  0.56711763  0.34261279
   0.37776856  0.05688654  0.49442345
   0.88404434  0.05723373  0.49437658
   1.13081927  0.56646376  0.47944329
   0.63076441  0.54633947  0.49667098
Direct configuration=     2
   0.63138993  0.36744121  0.55554055
   0.63178673  0.72243104  0.60020314
   0.47277820  0.48693254  0.61709882
   0.78143077  0.48274938  0.61819589
   0.62923981  0.54279135  0.59455421
   1.13081166  0.56969810  1.00000000
   0.63081166  0.56969810  1.00000000
   0.38081166  0.26355810  0.05586496
   0.88081166  0.26355810  0.05586496
   0.38081166 -0.12416190  0.05586496
   0.88081166 -0.12416190  0.05586496
   1.13081166  0.56969810  0.11172992
   0.63081166  0.56969810  0.11172992
   1.13081166  0.06969810  0.14408584
   0.63081166  0.06969810  0.14408584
   0.38081166  0.37583810  0.19995080
   0.88081166  0.37583810  0.19995080
   0.38081166  0.76355810  0.19995080
   0.88081166  0.76355810  0.19995080
   1.13081166  0.06969810  0.25581576
   0.63081166  0.06969810  0.25581576
   1.13082295  0.56313322  0.28786468
   0.63083514  0.56251887  0.28729818
   0.38080874  0.26114208  0.34690110
   0.88081863  0.26110982  0.34689316
   0.38174431 -0.12806350  0.34150961
   0.87994792 -0.12809609  0.34153065
   1.13088799  0.57944753  0.39706106
   0.63082020  0.57693981  0.40014793
   1.13089878  0.04014703  0.43321081
   0.63084786  0.04548845  0.43493288
   0.36218322  0.36505122  0.48602093
   0.89976156  0.36504096  0.48597193
   0.36849280  0.74602454  0.50185876
   0.89272921  0.74596090  0.50175851
   1.13086309  0.07034902  0.54763316
   0.63096344  0.09229739  0.54715785
   1.13081166  0.06969810  0.05586496
   0.63081166  0.06969810  0.05586496
   0.38081166  0.56969810  0.05586496
   0.88081166  0.56969810  0.05586496
   0.38081166  0.06969810  0.19995080
   0.88081166  0.06969810  0.19995080
   1.13081166  0.56969810  0.19995080
   0.63081166  0.56969810  0.19995080
   1.13083129  0.06420696  0.34564202
   0.63082523  0.06470895  0.34667688
   0.38478432  0.56717392  0.34260472
   0.87690518  0.56711901  0.34261254
   0.37777087  0.05690595  0.49442638
   0.88404154  0.05725363  0.49438012
   1.13081828  0.56649122  0.47944681
   0.63076558  0.54634791  0.49667378
Direct configuration=     3
   0.63132777  0.37250939  0.55666920
   0.63178663  0.72240874  0.60020153
   0.47277798  0.48692991  0.61709846
   0.78143164  0.48274658  0.61819558
   0.62917736  0.54786352  0.59568136
   1.13081166  0.56969810  1.00000000
   0.63081166  0.56969810  1.00000000
   0.38081166  0.26355810  0.05586496
   0.88081166  0.26355810  0.05586496
   0.38081166 -0.12416190  0.05586496
   0.88081166 -0.12416190  0.05586496
   1.13081166  0.56969810  0.11172992
   0.63081166  0.56969810  0.11172992
   1.13081166  0.06969810  0.14408584
   0.63081166  0.06969810  0.14408584
   0.38081166  0.37583810  0.19995080
   0.88081166  0.37583810  0.19995080
   0.38081166  0.76355810  0.19995080
   0.88081166  0.76355810  0.19995080
   1.13081166  0.06969810  0.25581576
   0.63081166  0.06969810  0.25581576
   1.13082295  0.56313322  0.28786465
   0.63083515  0.56251887  0.28729833
   0.38080877  0.26114228  0.34690110
   0.88081860  0.26111001  0.34689315
   0.38174433 -0.12806364  0.34150961
   0.87994790 -0.12809623  0.34153066
   1.13088799  0.57944755  0.39706097
   0.63082020  0.57693980  0.40014859
   1.13089879  0.04014714  0.43321083
   0.63084787  0.04548853  0.43493261
   0.36218315  0.36505095  0.48602108
   0.89976167  0.36504068  0.48597209
   0.36849216  0.74602475  0.50185882
   0.89272979  0.74596109  0.50175857
   1.13086311  0.07034901  0.54763325
   0.63096340  0.09229480  0.54715744
   1.13081166  0.06969810  0.05586496
   0.63081166  0.06969810  0.05586496
   0.38081166  0.56969810  0.05586496
   0.88081166  0.56969810  0.05586496
   0.38081166  0.06969810  0.19995080
   0.88081166  0.06969810  0.19995080
   1.13081166  0.56969810  0.19995080
   0.63081166  0.56969810  0.19995080
   1.13083129  0.06420698  0.34564206
   0.63082523  0.06470895  0.34667705
   0.38478360  0.56717395  0.34260468
   0.87690591  0.56711903  0.34261250
   0.37777323  0.05690646  0.49442672
   0.88403918  0.05725420  0.49438048
   1.13081827  0.56649142  0.47944685
   0.63076562  0.54635208  0.49666928
Direct configuration=     4
   0.63132303  0.37366820  0.55688566
   0.63179640  0.72227324  0.60015300
   0.47275378  0.48694803  0.61712754
   0.78146465  0.48276479  0.61822411
   0.62913586  0.54872417  0.59600873
   1.13081166  0.56969810  1.00000000
   0.63081166  0.56969810  1.00000000
   0.38081166  0.26355810  0.05586496
   0.88081166  0.26355810  0.05586496
   0.38081166 -0.12416190  0.05586496
   0.88081166 -0.12416190  0.05586496
   1.13081166  0.56969810  0.11172992
   0.63081166  0.56969810  0.11172992
   1.13081166  0.06969810  0.14408584
   0.63081166  0.06969810  0.14408584
   0.38081166  0.37583810  0.19995080
   0.88081166  0.37583810  0.19995080
   0.38081166  0.76355810  0.19995080
   0.88081166  0.76355810  0.19995080
   1.13081166  0.06969810  0.25581576
   0.63081166  0.06969810  0.25581576
   1.13082344  0.56313309  0.28785983
   0.63083549  0.56251997  0.28731228
   0.38080661  0.26116303  0.34689757
   0.88082129  0.26113118  0.34688968
   0.38174337 -0.12808420  0.34150688
   0.87994881 -0.12811701  0.34152794
   1.13088825  0.57944736  0.39705221
   0.63082108  0.57692455  0.40021465
   1.13089963  0.04015308  0.43321149
   0.63084865  0.04549185  0.43489724
   0.36219287  0.36504183  0.48603973
   0.89975009  0.36503153  0.48599172
   0.36842774  0.74602156  0.50186030
   0.89279286  0.74595841  0.50176017
   1.13086477  0.07035979  0.54764167
   0.63095896  0.09199402  0.54711936
   1.13081166  0.06969810  0.05586496
   0.63081166  0.06969810  0.05586496
   0.38081166  0.56969810  0.05586496
   0.88081166  0.56969810  0.05586496
   0.38081166  0.06969810  0.19995080
   0.88081166  0.06969810  0.19995080
   1.13081166  0.56969810  0.19995080
   0.63081166  0.56969810  0.19995080
   1.13083115  0.06420906  0.34565177
   0.63082545  0.06470816  0.34670183
   0.38470628  0.56717214  0.34260293
   0.87698400  0.56711674  0.34261074
   0.37806916  0.05697164  0.49447079
   0.88374317  0.05732239  0.49442535
   1.13081717  0.56650784  0.47945158
   0.63076565  0.54670895  0.49643088
Direct configuration=     5
   0.63134884  0.37353957  0.55671031
   0.63181937  0.72184773  0.60000605
   0.47261025  0.48695357  0.61721824
   0.78160351  0.48277771  0.61831172
   0.62912466  0.54786631  0.59610269
   1.13081166  0.56969810  1.00000000
   0.63081166  0.56969810  1.00000000
   0.38081166  0.26355810  0.05586496
   0.88081166  0.26355810  0.05586496
   0.38081166 -0.12416190  0.05586496
   0.88081166 -0.12416190  0.05586496
   1.13081166  0.56969810  0.11172992
   0.63081166  0.56969810  0.11172992
   1.13081166  0.06969810  0.14408584
   0.63081166  0.06969810  0.14408584
   0.38081166  0.37583810  0.19995080
   0.88081166  0.37583810  0.19995080
   0.38081166  0.76355810  0.19995080
   0.88081166  0.76355810  0.19995080
   1.13081166  0.06969810  0.25581576
   0.63081166  0.06969810  0.25581576
   1.13082424  0.56313161  0.28784655
   0.63083567  0.56252249  0.28736432
   0.38081485  0.26121964  0.34689048
   0.88081299  0.26118702  0.34688246
   0.38175708 -0.12813750  0.34150150
   0.87993519 -0.12816968  0.34152284
   1.13088830  0.57944561  0.39703977
   0.63082484  0.57691033  0.40033625
   1.13090059  0.04018040  0.43322279
   0.63085005  0.04549873  0.43482515
   0.36223923  0.36506355  0.48607626
   0.89970319  0.36505201  0.48603042
   0.36826595  0.74609705  0.50185590
   0.89294786  0.74603374  0.50175692
   1.13086873  0.07038065  0.54764941
   0.63094919  0.09124724  0.54705158
   1.13081166  0.06969810  0.05586496
   0.63081166  0.06969810  0.05586496
   0.38081166  0.56969810  0.05586496
   0.88081166  0.56969810  0.05586496
   0.38081166  0.06969810  0.19995080
   0.88081166  0.06969810  0.19995080
   1.13081166  0.56969810  0.19995080
   0.63081166  0.56969810  0.19995080
   1.13083057  0.06421156  0.34568354
   0.63082529  0.06470915  0.34674291
   0.38453703  0.56716795  0.34258851
   0.87715321  0.56711055  0.34259621
   0.37847597  0.05711512  0.49455546
   0.88333402  0.05747464  0.49451220
   1.13081447  0.56648550  0.47946588
   0.63075832  0.54730649  0.49595879
Direct configuration=     6
   0.63135675  0.37365183  0.55666201
   0.63182715  0.72158678  0.59993563
   0.47251602  0.48691213  0.61726089
   0.78169782  0.48273652  0.61835426
   0.62911882  0.54777133  0.59613039
   1.13081166  0.56969810  1.00000000
   0.63081166  0.56969810  1.00000000
   0.38081166  0.26355810  0.05586496
   0.88081166  0.26355810  0.05586496
   0.38081166 -0.12416190  0.05586496
   0.88081166 -0.12416190  0.05586496
   1.13081166  0.56969810  0.11172992
   0.63081166  0.56969810  0.11172992
   1.13081166  0.06969810  0.14408584
   0.63081166  0.06969810  0.14408584
   0.38081166  0.37583810  0.19995080
   0.88081166  0.37583810  0.19995080
   0.38081166  0.76355810  0.19995080
   0.88081166  0.76355810  0.19995080
   1.13081166  0.06969810  0.25581576
   0.63081166  0.06969810  0.25581576
   1.13082443  0.56313157  0.28783982
   0.63083514  0.56252439  0.28738921
   0.38082482  0.26124405  0.34688799
   0.88080248  0.26121068  0.34687984
   0.38176752 -0.12815706  0.34149988
   0.87992408 -0.12818834  0.34152095
   1.13088820  0.57944417  0.39704020
   0.63082500  0.57692825  0.40034492
   1.13090082  0.04020267  0.43323004
   0.63084977  0.04550424  0.43481020
   0.36224795  0.36508317  0.48608135
   0.89969938  0.36506984  0.48603591
   0.36820543  0.74615947  0.50184634
   0.89300002  0.74609302  0.50174763
   1.13086939  0.07039066  0.54765111
   0.63094853  0.09100184  0.54704942
   1.13081166  0.06969810  0.05586496
   0.63081166  0.06969810  0.05586496
   0.38081166  0.56969810  0.05586496
   0.88081166  0.56969810  0.05586496
   0.38081166  0.06969810  0.19995080
   0.88081166  0.06969810  0.19995080
   1.13081166  0.56969810  0.19995080
   0.63081166  0.56969810  0.19995080
   1.13083038  0.06421077  0.34570168
   0.63082527  0.06471179  0.34674767
   0.38449344  0.56716895  0.34258116
   0.87719732  0.56710928  0.34258891
   0.37843211  0.05714620  0.49456708
   0.88337844  0.05750992  0.49452433
   1.13081287  0.56645521  0.47947667
   0.63075752  0.54739251  0.49587950
Direct configuration=     7
   0.63137184  0.37360352  0.55653664
   0.63183974  0.72116827  0.59981762
   0.47239283  0.48684594  0.61732437
   0.78182068  0.48267147  0.61841729
   0.62911147  0.54738674  0.59612781
   1.13081166  0.56969810  1.00000000
   0.63081166  0.56969810  1.00000000
   0.38081166  0.26355810  0.05586496
   0.88081166  0.26355810  0.05586496
   0.38081166 -0.12416190  0.05586496
   0.88081166 -0.12416190  0.05586496
   1.13081166  0.56969810  0.11172992
   0.63081166  0.56969810  0.11172992
   1.13081166  0.06969810  0.14408584
   0.63081166  0.06969810  0.14408584
   0.38081166  0.37583810  0.19995080
   0.88081166  0.37583810  0.19995080
   0.38081166  0.76355810  0.19995080
   0.88081166  0.76355810  0.19995080
   1.13081166  0.06969810  0.25581576
   0.63081166  0.06969810  0.25581576
   1.13082431  0.56313091  0.28783001
   0.63083483  0.56252682  0.28742447
   0.38083982  0.26128066  0.34688462
   0.88078668  0.26124609  0.34687623
   0.38178220 -0.12818632  0.34149804
   0.87990993 -0.12821780  0.34151882
   1.13088789  0.57943987  0.39704148
   0.63082494  0.57696545  0.40035424
   1.13090092  0.04024264  0.43323626
   0.63084940  0.04551705  0.43479175
   0.36227206  0.36511355  0.48608363
   0.89968240  0.36509668  0.48603886
   0.36813152  0.74624142  0.50182608
   0.89306265  0.74617169  0.50172788
   1.13087017  0.07041198  0.54765894
   0.63094936  0.09062254  0.54704392
   1.13081166  0.06969810  0.05586496
   0.63081166  0.06969810  0.05586496
   0.38081166  0.56969810  0.05586496
   0.88081166  0.56969810  0.05586496
   0.38081166  0.06969810  0.19995080
   0.88081166  0.06969810  0.19995080
   1.13081166  0.56969810  0.19995080
   0.63081166  0.56969810  0.19995080
   1.13083025  0.06420814  0.34573155
   0.63082496  0.06471542  0.34675459
   0.38442925  0.56717020  0.34257165
   0.87726234  0.56710744  0.34257937
   0.37836038  0.05718336  0.49458078
   0.88345044  0.05755327  0.49453861
   1.13081179  0.56641882  0.47949499
   0.63075549  0.54753129  0.49575548
Direct configuration=     8
   0.63137532  0.37380322  0.55653564
   0.63184543  0.72108188  0.59977238
   0.47236677  0.48682691  0.61734710
   0.78184401  0.48265410  0.61843935
   0.62910626  0.54741864  0.59618787
   1.13081166  0.56969810  1.00000000
   0.63081166  0.56969810  1.00000000
   0.38081166  0.26355810  0.05586496
   0.88081166  0.26355810  0.05586496
   0.38081166 -0.12416190  0.05586496
   0.88081166 -0.12416190  0.05586496
   1.13081166  0.56969810  0.11172992
   0.63081166  0.56969810  0.11172992
   1.13081166  0.06969810  0.14408584
   0.63081166  0.06969810  0.14408584
   0.38081166  0.37583810  0.19995080
   0.88081166  0.37583810  0.19995080
   0.38081166  0.76355810  0.19995080
   0.88081166  0.76355810  0.19995080
   1.13081166  0.06969810  0.25581576
   0.63081166  0.06969810  0.25581576
   1.13082430  0.56313072  0.28782602
   0.63083467  0.56252717  0.28743284
   0.38084156  0.26129049  0.34688312
   0.88078507  0.26125541  0.34687471
   0.38178245 -0.12819169  0.34149724
   0.87990983 -0.12822358  0.34151793
   1.13088776  0.57943745  0.39704285
   0.63082444  0.57698264  0.40035566
   1.13090071  0.04026127  0.43323809
   0.63084990  0.04552576  0.43478571
   0.36227863  0.36512110  0.48608328
   0.89967884  0.36510308  0.48603869
   0.36810642  0.74626322  0.50181642
   0.89308350  0.74619303  0.50171862
   1.13087030  0.07042335  0.54766419
   0.63095096  0.09048064  0.54703961
   1.13081166  0.06969810  0.05586496
   0.63081166  0.06969810  0.05586496
   0.38081166  0.56969810  0.05586496
   0.88081166  0.56969810  0.05586496
   0.38081166  0.06969810  0.19995080
   0.88081166  0.06969810  0.19995080
   1.13081166  0.56969810  0.19995080
   0.63081166  0.56969810  0.19995080
   1.13082992  0.06420764  0.34574034
   0.63082489  0.06471662  0.34675782
   0.38440749  0.56717111  0.34256931
   0.87728392  0.56710736  0.34257702
   0.37836084  0.05719354  0.49458577
   0.88345013  0.05756614  0.49454373
   1.13081129  0.56641183  0.47950101
   0.63075463  0.54758559  0.49572137
Direct configuration=     9
   0.63137836  0.37316643  0.55643357
   0.63183937  0.72085989  0.59979175
   0.47236147  0.48681113  0.61732598
   0.78185898  0.48263528  0.61841956
   0.62911077  0.54697646  0.59601493
   1.13081166  0.56969810  1.00000000
   0.63081166  0.56969810  1.00000000
   0.38081166  0.26355810  0.05586496
   0.88081166  0.26355810  0.05586496
   0.38081166 -0.12416190  0.05586496
   0.88081166 -0.12416190  0.05586496
   1.13081166  0.56969810  0.11172992
   0.63081166  0.56969810  0.11172992
   1.13081166  0.06969810  0.14408584
   0.63081166  0.06969810  0.14408584
   0.38081166  0.37583810  0.19995080
   0.88081166  0.37583810  0.19995080
   0.38081166  0.76355810  0.19995080
   0.88081166  0.76355810  0.19995080
   1.13081166  0.06969810  0.25581576
   0.63081166  0.06969810  0.25581576
   1.13082444  0.56313104  0.28782678
   0.63083483  0.56252822  0.28743918
   0.38085136  0.26129423  0.34688388
   0.88077446  0.26125778  0.34687559
   0.38179655 -0.12819955  0.34149745
   0.87989619 -0.12823056  0.34151808
   1.13088815  0.57944144  0.39704166
   0.63082536  0.57696723  0.40035532
   1.13090133  0.04024126  0.43323903
   0.63084691  0.04550962  0.43478909
   0.36227435  0.36512311  0.48608720
   0.89968300  0.36510437  0.48604257
   0.36811168  0.74627187  0.50182659
   0.89308005  0.74620090  0.50172827
   1.13087032  0.07040737  0.54765862
   0.63094814  0.09056270  0.54704618
   1.13081166  0.06969810  0.05586496
   0.63081166  0.06969810  0.05586496
   0.38081166  0.56969810  0.05586496
   0.88081166  0.56969810  0.05586496
   0.38081166  0.06969810  0.19995080
   0.88081166  0.06969810  0.19995080
   1.13081166  0.56969810  0.19995080
   0.63081166  0.56969810  0.19995080
   1.13083042  0.06420614  0.34574062
   0.63082503  0.06471609  0.34675428
   0.38441252  0.56717089  0.34256819
   0.87727883  0.56710720  0.34257604
   0.37830619  0.05719604  0.49458205
   0.88350449  0.05756719  0.49454019
   1.13081216  0.56640556  0.47950035
   0.63075533  0.54756387  0.49571673
Direct configuration=    10
   0.63138102  0.37302553  0.55640281
   0.63183976  0.72062850  0.59976380
   0.47236252  0.48677512  0.61732129
   0.78185947  0.48260029  0.61841452
   0.62911361  0.54682736  0.59598716
   1.13081166  0.56969810  1.00000000
   0.63081166  0.56969810  1.00000000
   0.38081166  0.26355810  0.05586496
   0.88081166  0.26355810  0.05586496
   0.38081166 -0.12416190  0.05586496
   0.88081166 -0.12416190  0.05586496
   1.13081166  0.56969810  0.11172992
   0.63081166  0.56969810  0.11172992
   1.13081166  0.06969810  0.14408584
   0.63081166  0.06969810  0.14408584
   0.38081166  0.37583810  0.19995080
   0.88081166  0.37583810  0.19995080
   0.38081166  0.76355810  0.19995080
   0.88081166  0.76355810  0.19995080
   1.13081166  0.06969810  0.25581576
   0.63081166  0.06969810  0.25581576
   1.13082439  0.56313098  0.28782487
   0.63083484  0.56252868  0.28744344
   0.38085332  0.26129927  0.34688358
   0.88077250  0.26126252  0.34687527
   0.38179778 -0.12820288  0.34149735
   0.87989514 -0.12823407  0.34151794
   1.13088818  0.57944139  0.39704196
   0.63082530  0.57697323  0.40035417
   1.13090132  0.04024635  0.43323877
   0.63084571  0.04550974  0.43478739
   0.36227056  0.36512633  0.48608728
   0.89968927  0.36510651  0.48604273
   0.36809895  0.74628178  0.50182427
   0.89309036  0.74620996  0.50172600
   1.13087031  0.07040907  0.54766220
   0.63094836  0.09052711  0.54704618
   1.13081166  0.06969810  0.05586496
   0.63081166  0.06969810  0.05586496
   0.38081166  0.56969810  0.05586496
   0.88081166  0.56969810  0.05586496
   0.38081166  0.06969810  0.19995080
   0.88081166  0.06969810  0.19995080
   1.13081166  0.56969810  0.19995080
   0.63081166  0.56969810  0.19995080
   1.13083036  0.06420445  0.34574533
   0.63082491  0.06471626  0.34675564
   0.38440171  0.56717167  0.34256738
   0.87728988  0.56710729  0.34257524
   0.37829830  0.05719967  0.49458330
   0.88351162  0.05757229  0.49454161
   1.13081224  0.56640503  0.47950511
   0.63075489  0.54760268  0.49568438
Direct configuration=    11
   0.63138224  0.37220131  0.55632362
   0.63183268  0.71988459  0.59972719
   0.47244482  0.48662727  0.61724129
   0.78179601  0.48245237  0.61833469
   0.62912352  0.54625123  0.59581739
   1.13081166  0.56969810  1.00000000
   0.63081166  0.56969810  1.00000000
   0.38081166  0.26355810  0.05586496
   0.88081166  0.26355810  0.05586496
   0.38081166 -0.12416190  0.05586496
   0.88081166 -0.12416190  0.05586496
   1.13081166  0.56969810  0.11172992
   0.63081166  0.56969810  0.11172992
   1.13081166  0.06969810  0.14408584
   0.63081166  0.06969810  0.14408584
   0.38081166  0.37583810  0.19995080
   0.88081166  0.37583810  0.19995080
   0.38081166  0.76355810  0.19995080
   0.88081166  0.76355810  0.19995080
   1.13081166  0.06969810  0.25581576
   0.63081166  0.06969810  0.25581576
   1.13082430  0.56313021  0.28782387
   0.63083531  0.56252813  0.28743832
   0.38085263  0.26129171  0.34688515
   0.88077322  0.26125401  0.34687695
   0.38179682 -0.12819621  0.34149810
   0.87989597 -0.12822895  0.34151957
   1.13088864  0.57944492  0.39704411
   0.63082559  0.57697058  0.40033733
   1.13090117  0.04023296  0.43323356
   0.63083958  0.04549459  0.43479723
   0.36224200  0.36512469  0.48608434
   0.89972405  0.36510628  0.48604004
   0.36810301  0.74628642  0.50183043
   0.89308385  0.74621277  0.50173142
   1.13086955  0.07039177  0.54766498
   0.63094794  0.09069141  0.54704946
   1.13081166  0.06969810  0.05586496
   0.63081166  0.06969810  0.05586496
   0.38081166  0.56969810  0.05586496
   0.88081166  0.56969810  0.05586496
   0.38081166  0.06969810  0.19995080
   0.88081166  0.06969810  0.19995080
   1.13081166  0.56969810  0.19995080
   0.63081166  0.56969810  0.19995080
   1.13083066  0.06419944  0.34574286
   0.63082461  0.06471449  0.34675311
   0.38440041  0.56717304  0.34256717
   0.87729183  0.56710768  0.34257514
   0.37827533  0.05719281  0.49457821
   0.88352957  0.05756457  0.49453637
   1.13081338  0.56641541  0.47951152
   0.63075729  0.54758799  0.49563893
Direct configuration=    12
   0.63138672  0.37157691  0.55625311
   0.63183603  0.71913141  0.59962811
   0.47246337  0.48638644  0.61717967
   0.78179432  0.48221222  0.61827251
   0.62910771  0.54568049  0.59572715
   1.13081166  0.56969810  1.00000000
   0.63081166  0.56969810  1.00000000
   0.38081166  0.26355810  0.05586496
   0.88081166  0.26355810  0.05586496
   0.38081166 -0.12416190  0.05586496
   0.88081166 -0.12416190  0.05586496
   1.13081166  0.56969810  0.11172992
   0.63081166  0.56969810  0.11172992
   1.13081166  0.06969810  0.14408584
   0.63081166  0.06969810  0.14408584
   0.38081166  0.37583810  0.19995080
   0.88081166  0.37583810  0.19995080
   0.38081166  0.76355810  0.19995080
   0.88081166  0.76355810  0.19995080
   1.13081166  0.06969810  0.25581576
   0.63081166  0.06969810  0.25581576
   1.13082618  0.56312871  0.28782028
   0.63083591  0.56252730  0.28743989
   0.38085177  0.26129399  0.34688580
   0.88077513  0.26125542  0.34687761
   0.38179262 -0.12819472  0.34149849
   0.87990043 -0.12822929  0.34152094
   1.13088934  0.57944566  0.39704801
   0.63082551  0.57699239  0.40031697
   1.13090044  0.04024345  0.43322936
   0.63083468  0.04549055  0.43480084
   0.36221705  0.36512421  0.48607651
   0.89976083  0.36510541  0.48603297
   0.36808863  0.74630959  0.50182369
   0.89309151  0.74623423  0.50172428
   1.13086852  0.07038749  0.54767381
   0.63094826  0.09074815  0.54705056
   1.13081166  0.06969810  0.05586496
   0.63081166  0.06969810  0.05586496
   0.38081166  0.56969810  0.05586496
   0.88081166  0.56969810  0.05586496
   0.38081166  0.06969810  0.19995080
   0.88081166  0.06969810  0.19995080
   1.13081166  0.56969810  0.19995080
   0.63081166  0.56969810  0.19995080
   1.13083073  0.06419574  0.34574747
   0.63082453  0.06471425  0.34675339
   0.38437221  0.56717476  0.34256147
   0.87732152  0.56710708  0.34256949
   0.37824568  0.05719516  0.49457847
   0.88355605  0.05757087  0.49453660
   1.13081487  0.56642220  0.47952457
   0.63075787  0.54762185  0.49556018
Direct configuration=    13
   0.63138381  0.37168553  0.55626714
   0.63182907  0.71937040  0.59970270
   0.47250937  0.48655743  0.61719300
   0.78175377  0.48237997  0.61828766
   0.62911072  0.54588071  0.59570763
   1.13081166  0.56969810  1.00000000
   0.63081166  0.56969810  1.00000000
   0.38081166  0.26355810  0.05586496
   0.88081166  0.26355810  0.05586496
   0.38081166 -0.12416190  0.05586496
   0.88081166 -0.12416190  0.05586496
   1.13081166  0.56969810  0.11172992
   0.63081166  0.56969810  0.11172992
   1.13081166  0.06969810  0.14408584
   0.63081166  0.06969810  0.14408584
   0.38081166  0.37583810  0.19995080
   0.88081166  0.37583810  0.19995080
   0.38081166  0.76355810  0.19995080
   0.88081166  0.76355810  0.19995080
   1.13081166  0.06969810  0.25581576
   0.63081166  0.06969810  0.25581576
   1.13082488  0.56312967  0.28782306
   0.63083570  0.56252785  0.28743777
   0.38085269  0.26128895  0.34688576
   0.88077353  0.26125076  0.34687762
   0.38179692 -0.12819455  0.34149834
   0.87989631 -0.12822823  0.34152029
   1.13088905  0.57944655  0.39704543
   0.63082495  0.57696818  0.40032834
   1.13090136  0.04022556  0.43322989
   0.63083528  0.04548494  0.43480152
   0.36222080  0.36512426  0.48608447
   0.89975006  0.36510605  0.48604016
   0.36809668  0.74629034  0.50183483
   0.89308991  0.74621608  0.50173539
   1.13086922  0.07038312  0.54766888
   0.63094759  0.09076869  0.54705228
   1.13081166  0.06969810  0.05586496
   0.63081166  0.06969810  0.05586496
   0.38081166  0.56969810  0.05586496
   0.88081166  0.56969810  0.05586496
   0.38081166  0.06969810  0.19995080
   0.88081166  0.06969810  0.19995080
   1.13081166  0.56969810  0.19995080
   0.63081166  0.56969810  0.19995080
   1.13083095  0.06419502  0.34574357
   0.63082461  0.06471336  0.34675234
   0.38439539  0.56717368  0.34256721
   0.87729738  0.56710760  0.34257530
   0.37826251  0.05718915  0.49457586
   0.88354004  0.05756059  0.49453418
   1.13081390  0.56642188  0.47951753
   0.63075837  0.54760333  0.49560010
Direct configuration=    14
   0.63138604  0.37234839  0.55631531
   0.63183917  0.71976059  0.59967756
   0.47242411  0.48660237  0.61725976
   0.78181790  0.48242868  0.61835276
   0.62910888  0.54623218  0.59586972
   1.13081166  0.56969810  1.00000000
   0.63081166  0.56969810  1.00000000
   0.38081166  0.26355810  0.05586496
   0.88081166  0.26355810  0.05586496
   0.38081166 -0.12416190  0.05586496
   0.88081166 -0.12416190  0.05586496
   1.13081166  0.56969810  0.11172992
   0.63081166  0.56969810  0.11172992
   1.13081166  0.06969810  0.14408584
   0.63081166  0.06969810  0.14408584
   0.38081166  0.37583810  0.19995080
   0.88081166  0.37583810  0.19995080
   0.38081166  0.76355810  0.19995080
   0.88081166  0.76355810  0.19995080
   1.13081166  0.06969810  0.25581576
   0.63081166  0.06969810  0.25581576
   1.13082482  0.56312964  0.28782091
   0.63083526  0.56252803  0.28744624
   0.38085286  0.26130039  0.34688393
   0.88077344  0.26126252  0.34687566
   0.38179478 -0.12820133  0.34149756
   0.87989832 -0.12823456  0.34151903
   1.13088858  0.57944216  0.39704552
   0.63082489  0.57698888  0.40033777
   1.13090097  0.04025285  0.43323430
   0.63084023  0.04550412  0.43479109
   0.36224545  0.36513061  0.48608327
   0.89972385  0.36511101  0.48603908
   0.36807635  0.74630783  0.50182062
   0.89310747  0.74623420  0.50172204
   1.13086968  0.07040453  0.54767139
   0.63094932  0.09055480  0.54704572
   1.13081166  0.06969810  0.05586496
   0.63081166  0.06969810  0.05586496
   0.38081166  0.56969810  0.05586496
   0.88081166  0.56969810  0.05586496
   0.38081166  0.06969810  0.19995080
   0.88081166  0.06969810  0.19995080
   1.13081166  0.56969810  0.19995080
   0.63081166  0.56969810  0.19995080
   1.13083046  0.06419821  0.34575164
   0.63082461  0.06471558  0.34675636
   0.38437693  0.56717330  0.34256456
   0.87731565  0.56710694  0.34257249
   0.37827584  0.05720101  0.49458341
   0.88352965  0.05757541  0.49454182
   1.13081310  0.56640991  0.47951886
   0.63075612  0.54764653  0.49559278
Direct configuration=    15
   0.63138833  0.37094241  0.55619303
   0.63183390  0.71859457  0.59958094
   0.47248161  0.48620750  0.61711922
   0.78178423  0.48203452  0.61821136
   0.62911425  0.54519677  0.59561180
   1.13081166  0.56969810  1.00000000
   0.63081166  0.56969810  1.00000000
   0.38081166  0.26355810  0.05586496
   0.88081166  0.26355810  0.05586496
   0.38081166 -0.12416190  0.05586496
   0.88081166 -0.12416190  0.05586496
   1.13081166  0.56969810  0.11172992
   0.63081166  0.56969810  0.11172992
   1.13081166  0.06969810  0.14408584
   0.63081166  0.06969810  0.14408584
   0.38081166  0.37583810  0.19995080
   0.88081166  0.37583810  0.19995080
   0.38081166  0.76355810  0.19995080
   0.88081166  0.76355810  0.19995080
   1.13081166  0.06969810  0.25581576
   0.63081166  0.06969810  0.25581576
   1.13082683  0.56312796  0.28781923
   0.63083631  0.56252695  0.28743855
   0.38085275  0.26129331  0.34688689
   0.88077437  0.26125359  0.34687879
   0.38179264 -0.12819329  0.34149893
   0.87990044 -0.12822877  0.34152207
   1.13088990  0.57944831  0.39704969
   0.63082677  0.57699693  0.40030139
   1.13089990  0.04023868  0.43322581