vasp.5.4.1 08Jul2015 (build Apr 24 2014 00:09:29) complex standard with constrain (TS)    
 executed on IBM of Center for Computational Chemistry date 2017.12.16  16:21:31
 running on   24 total cores
 distrk:  each k-point on   24 cores,    1 groups
 distr:  one band on NCORES_PER_BAND=   6 cores,    4 groups


--------------------------------------------------------------------------------------------------------


 INCAR:
 POTCAR:    PAW_PBE O 08Apr2002                   
 POTCAR:    PAW_PBE Rh 04Feb2005                  
 POTCAR:    PAW_PBE O 08Apr2002                   
   VRHFIN =O: s2p4                                                              
   LEXCH  = PE                                                                  
   EATOM  =   432.3788 eV,   31.7789 Ry                                         
                                                                                
   TITEL  = PAW_PBE O 08Apr2002                                                 
   LULTRA =        F    use ultrasoft PP ?                                      
   IUNSCR =        1    unscreen: 0-lin 1-nonlin 2-no                           
   RPACOR =    1.200    partial core radius                                     
   POMASS =   16.000; ZVAL   =    6.000    mass and valenz                      
   RCORE  =    1.520    outmost cutoff radius                                   
   RWIGS  =    1.550; RWIGS  =    0.820    wigner-seitz radius (au A)           
   ENMAX  =  400.000; ENMIN  =  300.000 eV                                      
   ICORE  =        2    local potential                                         
   LCOR   =        T    correct aug charges                                     
   LPAW   =        T    paw PP                                                  
   EAUG   =  605.392                                                            
   DEXC   =    0.000                                                            
   RMAX   =    1.553    core radius for proj-oper                               
   RAUG   =    1.300    factor for augmentation sphere                          
   RDEP   =    1.550    radius for radial grids                                 
   RDEPT  =    1.329    core radius for aug-charge                              
                                                                                
   Atomic configuration                                                         
    4 entries                                                                   
     n  l   j            E        occ.                                          
     1  0  0.50      -514.6923   2.0000                                         
     2  0  0.50       -23.9615   2.0000                                         
     2  1  0.50        -9.0305   4.0000                                         
     3  2  1.50        -9.5241   0.0000                                         
   Description                                                                  
     l       E           TYP  RCUT    TYP  RCUT                                 
     0    -23.9615318     23  1.200                                             
     0     -9.5240782     23  1.200                                             
     1     -9.0304911     23  1.520                                             
     1      8.1634956     23  1.520                                             
     2     -9.5240782      7  1.500                                             
  local pseudopotential read in
  partial core-charges read in
  partial kinetic energy density read in
  kinetic energy density of atom read in
  atomic valenz-charges read in
  non local Contribution for L=           0  read in
    real space projection operators read in
  non local Contribution for L=           0  read in
    real space projection operators read in
  non local Contribution for L=           1  read in
    real space projection operators read in
  non local Contribution for L=           1  read in
    real space projection operators read in
    PAW grid and wavefunctions read in
 
   number of l-projection  operators is LMAX  =           4
   number of lm-projection operators is LMMAX =           8
 
 POTCAR:    PAW_PBE Rh 04Feb2005                  
   VRHFIN =Rh: s1 d8                                                            
   LEXCH  = PE                                                                  
   EATOM  =   616.4198 eV,   45.3056 Ry                                         
                                                                                
   TITEL  = PAW_PBE Rh 04Feb2005                                                
   LULTRA =        F    use ultrasoft PP ?                                      
   IUNSCR =        1    unscreen: 0-lin 1-nonlin 2-no                           
   RPACOR =    2.170    partial core radius                                     
   POMASS =  102.906; ZVAL   =    9.000    mass and valenz                      
   RCORE  =    2.700    outmost cutoff radius                                   
   RWIGS  =    2.650; RWIGS  =    1.402    wigner-seitz radius (au A)           
   ENMAX  =  228.996; ENMIN  =  171.747 eV                                      
   ICORE  =        3    local potential                                         
   LCOR   =        T    correct aug charges                                     
   LPAW   =        T    paw PP                                                  
   EAUG   =  374.513                                                            
   DEXC   =    0.000                                                            
   RMAX   =    2.752    core radius for proj-oper                               
   RAUG   =    1.300    factor for augmentation sphere                          
   RDEP   =    2.703    radius for radial grids                                 
   RDEPT  =    2.174    core radius for aug-charge                              
                                                                                
   Atomic configuration                                                         
   12 entries                                                                   
     n  l   j            E        occ.                                          
     1  0  0.50    -23034.1986   2.0000                                         
     2  0  0.50     -3339.2387   2.0000                                         
     2  1  1.50     -2992.3290   6.0000                                         
     3  0  0.50      -596.7249   2.0000                                         
     3  1  1.50      -482.7183   6.0000                                         
     3  2  2.50      -300.5356  10.0000                                         
     4  0  0.50       -82.4809   2.0000                                         
     4  1  0.50       -50.4082   6.0000                                         
     4  2  2.50        -5.9408   8.0000                                         
     5  0  0.50        -4.2999   1.0000                                         
     5  1  1.50        -1.3606   0.0000                                         
     4  3  2.50        -1.3606   0.0000                                         
   Description                                                                  
     l       E           TYP  RCUT    TYP  RCUT                                 
     2     -5.9407964     23  2.500                                             
     2     -7.3013790     23  2.500                                             
     0     -4.2998518     23  2.400                                             
     0      6.0533315     23  2.400                                             
     1     -4.0817478     23  2.700                                             
     1     27.2116520     23  2.700                                             
     3     -4.0817478     23  2.500                                             
  local pseudopotential read in
  partial core-charges read in
  partial kinetic energy density read in
  atomic valenz-charges read in
  non local Contribution for L=           2  read in
    real space projection operators read in
  non local Contribution for L=           2  read in
    real space projection operators read in
  non local Contribution for L=           0  read in
    real space projection operators read in
  non local Contribution for L=           0  read in
    real space projection operators read in
  non local Contribution for L=           1  read in
    real space projection operators read in
  non local Contribution for L=           1  read in
    real space projection operators read in
    PAW grid and wavefunctions read in
 
   number of l-projection  operators is LMAX  =           6
   number of lm-projection operators is LMMAX =          18
 
 Optimization of the real space projectors (new method)

 maximal supplied QI-value         = 24.76
 optimisation between [QCUT,QGAM] = [ 11.39, 22.77] = [ 36.31,145.25] Ry 
 Optimized for a Real-space Cutoff    1.10 Angstroem

   l    n(q)    QCUT    max X(q) W(low)/X(q) W(high)/X(q)  e(spline) 
   0      7    11.387    20.381    0.22E-03    0.48E-03    0.18E-06
   0      7    11.387    15.268    0.22E-03    0.52E-03    0.19E-06
   1      7    11.387     5.964    0.22E-03    0.73E-03    0.24E-06
   1      7    11.387     5.382    0.19E-03    0.60E-03    0.21E-06
 Optimization of the real space projectors (new method)

 maximal supplied QI-value         = 13.98
 optimisation between [QCUT,QGAM] = [ 11.33, 22.79] = [ 35.93,145.49] Ry 
 Optimized for a Real-space Cutoff    1.52 Angstroem

   l    n(q)    QCUT    max X(q) W(low)/X(q) W(high)/X(q)  e(spline) 
   2      9    11.327    59.645    0.18E-03    0.38E-04    0.24E-06
   2      9    11.327    58.460    0.18E-03    0.38E-04    0.25E-06
   0     10    11.327    97.683    0.47E-04    0.63E-04    0.45E-06
   0     10    11.327    53.223    0.42E-04    0.58E-04    0.42E-06
   1     10    11.327    13.596    0.66E-04    0.37E-03    0.31E-06
   1     10    11.327     7.885    0.49E-04    0.28E-03    0.24E-06
  PAW_PBE O 08Apr2002                   :
 energy of atom  1       EATOM= -432.3788
 kinetic energy error for atom=    0.0224 (will be added to EATOM!!)
  PAW_PBE Rh 04Feb2005                  :
 energy of atom  2       EATOM= -616.4198
 kinetic energy error for atom=    0.0030 (will be added to EATOM!!)
 
 
 POSCAR: AutoCreatByScript                       
  positions in direct lattice
  No initial velocities read in
 exchange correlation table for  LEXCH =        8
   RHO(1)=    0.500       N(1)  =     2000
   RHO(2)=  100.500       N(2)  =     4000
 


--------------------------------------------------------------------------------------------------------


 ion  position               nearest neighbor table
   1  0.131  0.570  0.000-  35 1.98  36 1.98
   2  0.631  0.570  0.000-  35 1.98  36 1.98
   3  0.381  0.263  0.056-  35 1.95  34 1.98  33 1.98
   4  0.881  0.263  0.056-  36 1.95  34 1.98  33 1.98
   5  0.381  0.876  0.056-  35 1.95  34 1.98  33 1.98
   6  0.881  0.876  0.056-  36 1.95  34 1.98  33 1.98
   7  0.131  0.570  0.112-  39 1.95  36 1.98  35 1.98
   8  0.631  0.570  0.112-  40 1.95  36 1.98  35 1.98
   9  0.131  0.070  0.145-  33 1.95  37 1.98  38 1.98
  10  0.631  0.070  0.145-  34 1.95  37 1.98  38 1.98
  11  0.381  0.376  0.200-  37 1.95  39 1.98  40 1.98
  12  0.881  0.376  0.200-  38 1.95  39 1.98  40 1.98
  13  0.381  0.763  0.200-  37 1.95  39 1.98  40 1.98
  14  0.881  0.763  0.200-  38 1.95  39 1.98  40 1.98
  15  0.131  0.070  0.256-  41 1.95  38 1.98  37 1.98
  16  0.631  0.070  0.256-  42 1.95  38 1.98  37 1.98
  17  0.131  0.570  0.289-  39 1.95  43 1.98  44 1.98
  18  0.631  0.570  0.289-  40 1.95  43 1.98  44 1.98
  19  0.381  0.263  0.345-  43 1.95  42 1.98  41 1.98
  20  0.881  0.263  0.345-  44 1.95  42 1.98  41 1.98
  21  0.381  0.876  0.345-  43 1.95  42 1.98  41 1.98
  22  0.881  0.876  0.345-  44 1.95  42 1.98  41 1.98
  23  0.131  0.570  0.401-  47 1.95  44 1.98  43 1.98
  24  0.631  0.570  0.401-  48 1.95  44 1.98  43 1.98
  25  0.131  0.070  0.434-  41 1.95  45 1.98  46 1.98
  26  0.631  0.070  0.434-  42 1.95  45 1.98  46 1.98
  27  0.381  0.376  0.490-  45 1.95  47 1.98  48 1.98
  28  0.881  0.376  0.490-  46 1.95  47 1.98  48 1.98
  29  0.381  0.763  0.490-  45 1.95  47 1.98  48 1.98
  30  0.881  0.763  0.490-  46 1.95  47 1.98  48 1.98
  31  0.131  0.070  0.545-  45 1.98  46 1.98
  32  0.631  0.070  0.545-  45 1.98  46 1.98
  33  0.131  0.070  0.056-   9 1.95   4 1.98   3 1.98   6 1.98   5 1.98  34 3.10  34 3.10
  34  0.631  0.070  0.056-  10 1.95   4 1.98   3 1.98   6 1.98   5 1.98  33 3.10  33 3.10
  35  0.381  0.570  0.056-   5 1.95   3 1.95   1 1.98   2 1.98   7 1.98   8 1.98  36 3.10  36 3.10

  36  0.881  0.570  0.056-   6 1.95   4 1.95   1 1.98   2 1.98   7 1.98   8 1.98  35 3.10  35 3.10

  37  0.381  0.070  0.200-  11 1.95  13 1.95   9 1.98  10 1.98  15 1.98  16 1.98  38 3.10  38 3.10

  38  0.881  0.070  0.200-  12 1.95  14 1.95   9 1.98  10 1.98  15 1.98  16 1.98  37 3.10  37 3.10

  39  0.131  0.570  0.200-   7 1.95  17 1.95  14 1.98  13 1.98  12 1.98  11 1.98  40 3.10  40 3.10

  40  0.631  0.570  0.200-   8 1.95  18 1.95  14 1.98  13 1.98  12 1.98  11 1.98  39 3.10  39 3.10

  41  0.131  0.070  0.345-  15 1.95  25 1.95  20 1.98  19 1.98  22 1.98  21 1.98  42 3.10  42 3.10

  42  0.631  0.070  0.345-  16 1.95  26 1.95  20 1.98  19 1.98  22 1.98  21 1.98  41 3.10  41 3.10

  43  0.381  0.570  0.345-  21 1.95  19 1.95  23 1.98  24 1.98  17 1.98  18 1.98  44 3.10  44 3.10

  44  0.881  0.570  0.345-  22 1.95  20 1.95  23 1.98  24 1.98  17 1.98  18 1.98  43 3.10  43 3.10

  45  0.381  0.070  0.490-  27 1.95  29 1.95  25 1.98  26 1.98  31 1.98  32 1.98  46 3.10  46 3.10

  46  0.881  0.070  0.490-  28 1.95  30 1.95  25 1.98  26 1.98  31 1.98  32 1.98  45 3.10  45 3.10

  47  0.131  0.570  0.490-  23 1.95  29 1.98  30 1.98  27 1.98  28 1.98  48 3.10  48 3.10
  48  0.631  0.570  0.490-  24 1.95  29 1.98  30 1.98  27 1.98  28 1.98  47 3.10  47 3.10
 

IMPORTANT INFORMATION: All symmetrisations will be switched off!
NOSYMM: (Re-)initialisation of all symmetry stuff for point group C_1.

 
 
 KPOINTS: mesh auto                               

Automatic generation of k-mesh.
Space group operators:
 irot       det(A)        alpha          n_x          n_y          n_z        tau_x        tau_y        tau_z
    1     1.000000     0.000000     1.000000     0.000000     0.000000     0.000000     0.000000     0.000000
 
 Subroutine IBZKPT returns following result:
 ===========================================
 
 Found     10 irreducible k-points:
 
 Following reciprocal coordinates:
            Coordinates               Weight
  0.000000  0.000000  0.000000      1.000000
  0.250000  0.000000  0.000000      2.000000
  0.500000  0.000000  0.000000      1.000000
  0.000000  0.250000  0.000000      2.000000
  0.250000  0.250000  0.000000      2.000000
  0.500000  0.250000  0.000000      2.000000
 -0.250000  0.250000  0.000000      2.000000
  0.000000  0.500000  0.000000      1.000000
  0.250000  0.500000  0.000000      2.000000
  0.500000  0.500000  0.000000      1.000000
 
 Following cartesian coordinates:
            Coordinates               Weight
  0.000000  0.000000  0.000000      1.000000
  0.000000  0.000000  0.040325      2.000000
  0.000000  0.000000  0.080649      1.000000
  0.027800 -0.027800  0.000000      2.000000
  0.027800 -0.027800  0.040325      2.000000
  0.027800 -0.027800  0.080649      2.000000
  0.027800 -0.027800 -0.040325      2.000000
  0.055600 -0.055600  0.000000      1.000000
  0.055600 -0.055600  0.040325      2.000000
  0.055600 -0.055600  0.080649      1.000000
 


--------------------------------------------------------------------------------------------------------




 Dimension of arrays:
   k-points           NKPTS =     10   k-points in BZ     NKDIM =     10   number of bands    NBANDS=    228
   number of dos      NEDOS =    301   number of ions     NIONS =     48
   non local maximal  LDIM  =      6   non local SUM 2l+1 LMDIM =     18
   total plane-waves  NPLWV = 368640
   max r-space proj   IRMAX =   6286   max aug-charges    IRDMAX=  24359
   dimension x,y,z NGX =    48 NGY =   48 NGZ =  160
   dimension x,y,z NGXF=    96 NGYF=   96 NGZF=  320
   support grid    NGXF=    96 NGYF=   96 NGZF=  320
   ions per type =              32  16
 NGX,Y,Z   is equivalent  to a cutoff of  12.87, 12.55, 12.09 a.u.
 NGXF,Y,Z  is equivalent  to a cutoff of  25.74, 25.10, 24.19 a.u.


 I would recommend the setting:
   dimension x,y,z NGX =    45 NGY =   46 NGZ =  160
 SYSTEM =  RhO2_suf110_2x1x4_2fix                  
 POSCAR =  AutoCreatByScript                       

 Startparameter for this run:
   NWRITE =      2    write-flag & timer
   PREC   = accura    normal or accurate (medium, high low for compatibility)
   ISTART =      0    job   : 0-new  1-cont  2-samecut
   ICHARG =      2    charge: 1-file 2-atom 10-const
   ISPIN  =      2    spin polarized calculation?
   LNONCOLLINEAR =      F non collinear calculations
   LSORBIT =      F    spin-orbit coupling
   INIWAV =      1    electr: 0-lowe 1-rand  2-diag
   LASPH  =      F    aspherical Exc in radial PAW
   METAGGA=      F    non-selfconsistent MetaGGA calc.

 Electronic Relaxation 1
   ENCUT  =  500.0 eV  36.75 Ry    6.06 a.u.  11.30 11.59 40.10*2*pi/ulx,y,z
   ENINI  =  500.0     initial cutoff
   ENAUG  =  605.4 eV  augmentation charge cutoff
   NELM   =    300;   NELMIN=  3; NELMDL= -5     # of ELM steps 
   EDIFF  = 0.1E-03   stopping-criterion for ELM
   LREAL  =      T    real-space projection
   NLSPLINE    = F    spline interpolate recip. space projectors
   LCOMPAT=      F    compatible to vasp.4.4
   GGA_COMPAT  = T    GGA compatible to vasp.4.4-vasp.4.6
   LMAXPAW     = -100 max onsite density
   LMAXMIX     =    2 max onsite mixed and CHGCAR
   VOSKOWN=      0    Vosko Wilk Nusair interpolation
   ROPT   =   -0.00025  -0.00025
 Ionic relaxation
   EDIFFG = -.5E-01   stopping-criterion for IOM
   NSW    =   1000    number of steps for IOM
   NBLOCK =      1;   KBLOCK =   1000    inner block; outer block 
   IBRION =      2    ionic relax: 0-MD 1-quasi-New 2-CG
   NFREE  =      1    steps in history (QN), initial steepest desc. (CG)
   ISIF   =      2    stress and relaxation
   IWAVPR =     11    prediction:  0-non 1-charg 2-wave 3-comb
   ISYM   =      0    0-nonsym 1-usesym 2-fastsym
   LCORR  =      T    Harris-Foulkes like correction to forces

   POTIM  = 0.1000    time-step for ionic-motion
   TEIN   =    0.0    initial temperature
   TEBEG  =    0.0;   TEEND  =   0.0 temperature during run
   SMASS  =  -3.00    Nose mass-parameter (am)
   estimated Nose-frequenzy (Omega)   =  0.10E-29 period in steps =****** mass=  -0.878E-27a.u.
   SCALEE = 1.0000    scale energy and forces
   NPACO  =    256;   APACO  = 16.0  distance and # of slots for P.C.
   PSTRESS=    0.0 pullay stress

  Mass of Ions in am
   POMASS =  16.00102.91
  Ionic Valenz
   ZVAL   =   6.00  9.00
  Atomic Wigner-Seitz radii
   RWIGS  =  -1.00 -1.00
  virtual crystal weights 
   VCA    =   1.00  1.00
   NELECT =     336.0000    total number of electrons
   NUPDOWN=      -1.0000    fix difference up-down

 DOS related values:
   EMIN   =  10.00;   EMAX   =-10.00  energy-range for DOS
   EFERMI =   0.00
   ISMEAR =     0;   SIGMA  =   0.05  broadening in eV -4-tet -1-fermi 0-gaus

 Electronic relaxation 2 (details)
   IALGO  =     68    algorithm
   LDIAG  =      T    sub-space diagonalisation (order eigenvalues)
   LSUBROT=      F    optimize rotation matrix (better conditioning)
   TURBO    =      0    0=normal 1=particle mesh
   IRESTART =      0    0=no restart 2=restart with 2 vectors
   NREBOOT  =      0    no. of reboots
   NMIN     =      0    reboot dimension
   EREF     =   0.00    reference energy to select bands
   IMIX   =      4    mixing-type and parameters
     AMIX     =   0.40;   BMIX     =  1.00
     AMIX_MAG =   1.60;   BMIX_MAG =  1.00
     AMIN     =   0.10
     WC   =   100.;   INIMIX=   1;  MIXPRE=   1;  MAXMIX= -45

 Intra band minimization:
   WEIMIN = 0.0010     energy-eigenvalue tresh-hold
   EBREAK =  0.11E-06  absolut break condition
   DEPER  =   0.30     relativ break condition  

   TIME   =   0.40     timestep for ELM

  volume/ion in A,a.u.               =      18.07       121.91
  Fermi-wavevector in a.u.,A,eV,Ry     =   1.193510  2.255407 19.381036  1.424466
  Thomas-Fermi vector in A             =   2.329523
 
 Write flags
   LWAVE  =      F    write WAVECAR
   LCHARG =      F    write CHGCAR
   LVTOT  =      F    write LOCPOT, total local potential
   LVHAR  =      F    write LOCPOT, Hartree potential only
   LELF   =      F    write electronic localiz. function (ELF)
   LORBIT =      0    0 simple, 1 ext, 2 COOP (PROOUT)


 Dipole corrections
   LMONO  =      F    monopole corrections only (constant potential shift)
   LDIPOL =      F    correct potential (dipole corrections)
   IDIPOL =      0    1-x, 2-y, 3-z, 4-all directions 
   EPSILON=  1.0000000 bulk dielectric constant

 Exchange correlation treatment:
   GGA     =    --    GGA type
   LEXCH   =     8    internal setting for exchange type
   VOSKOWN=      0    Vosko Wilk Nusair interpolation
   LHFCALC =     F    Hartree Fock is set to
   LHFONE  =     F    Hartree Fock one center treatment
   AEXX    =    0.0000 exact exchange contribution

 Linear response parameters
   LEPSILON=     F    determine dielectric tensor
   LRPA    =     F    only Hartree local field effects (RPA)
   LNABLA  =     F    use nabla operator in PAW spheres
   LVEL    =     F    velocity operator in full k-point grid
   LINTERFAST=   F  fast interpolation
   KINTER  =     0    interpolate to denser k-point grid
   CSHIFT  =0.1000    complex shift for real part using Kramers Kronig
   OMEGAMAX=  -1.0    maximum frequency
   DEG_THRESHOLD= 0.2000000E-02 threshold for treating states as degnerate
   RTIME   =    0.100 relaxation time in fs

 Orbital magnetization related:
   ORBITALMAG=     F  switch on orbital magnetization
   LCHIMAG   =     F  perturbation theory with respect to B field
   DQ        =  0.001000  dq finite difference perturbation B field



--------------------------------------------------------------------------------------------------------


 conjugate gradient relaxation of ions
   using selective dynamics as specified on POSCAR
 charge density and potential will be updated during run
 spin polarized calculation
 RMM-DIIS sequential band-by-band and
  variant of blocked Davidson during initial phase
 perform sub-space diagonalisation
    before iterative eigenvector-optimisation
 modified Broyden-mixing scheme, WC =      100.0
 initial mixing is a Kerker type mixing with AMIX =  0.4000 and BMIX =      1.0000
 Hartree-type preconditioning will be used
 using additional bands           60
 real space projection scheme for non local part
 use partial core corrections
 calculate Harris-corrections to forces 
   (improved forces if not selfconsistent)
 use gradient corrections 
 use of overlap-Matrix (Vanderbilt PP)
 Gauss-broadening in eV      SIGMA  =   0.05


--------------------------------------------------------------------------------------------------------


  energy-cutoff  :      500.00
  volume of cell :      867.13
      direct lattice vectors                 reciprocal lattice vectors
     0.000000000  0.000000000  6.199679030     0.000000000  0.000000000  0.161298673
     4.496384460 -4.496384460  0.000000000     0.111200455 -0.111200455  0.000000000
    15.553317250 15.553317250  0.000000000     0.032147483  0.032147483  0.000000000

  length of vectors
     6.199679030  6.358847885 21.995712195     0.161298673  0.157261192  0.045463406


 
 k-points in units of 2pi/SCALE and weight: mesh auto                               
   0.00000000  0.00000000  0.00000000       0.062
   0.00000000  0.00000000  0.04032467       0.125
   0.00000000  0.00000000  0.08064934       0.062
   0.02780011 -0.02780011  0.00000000       0.125
   0.02780011 -0.02780011  0.04032467       0.125
   0.02780011 -0.02780011  0.08064934       0.125
   0.02780011 -0.02780011 -0.04032467       0.125
   0.05560023 -0.05560023  0.00000000       0.062
   0.05560023 -0.05560023  0.04032467       0.125
   0.05560023 -0.05560023  0.08064934       0.062
 
 k-points in reciprocal lattice and weights: mesh auto                               
   0.00000000  0.00000000  0.00000000       0.062
   0.25000000  0.00000000  0.00000000       0.125
   0.50000000  0.00000000  0.00000000       0.062
   0.00000000  0.25000000  0.00000000       0.125
   0.25000000  0.25000000  0.00000000       0.125
   0.50000000  0.25000000  0.00000000       0.125
  -0.25000000  0.25000000  0.00000000       0.125
   0.00000000  0.50000000  0.00000000       0.062
   0.25000000  0.50000000  0.00000000       0.125
   0.50000000  0.50000000  0.00000000       0.062
 
 position of ions in fractional coordinates (direct lattice) 
   0.13081166  0.56969810  0.00000000
   0.63081166  0.56969810  0.00000000
   0.38081166  0.26292810  0.05586180
   0.88081166  0.26292810  0.05586180
   0.38081166  0.87646810  0.05586180
   0.88081166  0.87646810  0.05586180
   0.13081166  0.56969810  0.11172361
   0.63081166  0.56969810  0.11172361
   0.13081166  0.06969810  0.14454744
   0.63081166  0.06969810  0.14454744
   0.38081166  0.37646810  0.20040925
   0.88081166  0.37646810  0.20040925
   0.38081166  0.76292810  0.20040925
   0.88081166  0.76292810  0.20040925
   0.13081166  0.06969810  0.25627105
   0.63081166  0.06969810  0.25627105
   0.13081166  0.56969810  0.28909489
   0.63081166  0.56969810  0.28909489
   0.38081166  0.26292810  0.34495669
   0.88081166  0.26292810  0.34495669
   0.38081166  0.87646810  0.34495669
   0.88081166  0.87646810  0.34495669
   0.13081166  0.56969810  0.40081849
   0.63081166  0.56969810  0.40081849
   0.13081166  0.06969810  0.43364233
   0.63081166  0.06969810  0.43364233
   0.38081166  0.37646810  0.48950413
   0.88081166  0.37646810  0.48950413
   0.38081166  0.76292810  0.48950413
   0.88081166  0.76292810  0.48950413
   0.13081166  0.06969810  0.54536594
   0.63081166  0.06969810  0.54536594
   0.13081166  0.06969810  0.05586180
   0.63081166  0.06969810  0.05586180
   0.38081166  0.56969810  0.05586180
   0.88081166  0.56969810  0.05586180
   0.38081166  0.06969810  0.20040925
   0.88081166  0.06969810  0.20040925
   0.13081166  0.56969810  0.20040925
   0.63081166  0.56969810  0.20040925
   0.13081166  0.06969810  0.34495669
   0.63081166  0.06969810  0.34495669
   0.38081166  0.56969810  0.34495669
   0.88081166  0.56969810  0.34495669
   0.38081166  0.06969810  0.48950413
   0.88081166  0.06969810  0.48950413
   0.13081166  0.56969810  0.48950413
   0.63081166  0.56969810  0.48950413
 
 position of ions in cartesian coordinates  (Angst):
   2.56158166 -2.56158166  0.81099031
   2.56158166 -2.56158166  3.91082983
   2.05106217 -0.31338943  2.36091007
   2.05106217 -0.31338943  5.46074959
   4.80977389 -3.07210115  2.36091007
   4.80977389 -3.07210115  5.46074959
   4.29925440 -0.82390892  0.81099031
   4.29925440 -0.82390892  3.91082983
   2.56158167  1.93480280  0.81099031
   2.56158167  1.93480280  3.91082983
   4.80977390  1.42428331  2.36091007
   4.80977390  1.42428331  5.46074959
   6.54744663 -0.31338943  2.36091007
   6.54744663 -0.31338943  5.46074959
   4.29925441  3.67247554  0.81099031
   4.29925441  3.67247554  3.91082983
   7.05796613  1.93480280  0.81099031
   7.05796613  1.93480280  3.91082983
   6.54744664  4.18299503  2.36091007
   6.54744664  4.18299503  5.46074959
   9.30615836  1.42428331  2.36091007
   9.30615836  1.42428331  5.46074959
   8.79563887  3.67247554  0.81099031
   8.79563887  3.67247554  3.91082983
   7.05796613  6.43118726  0.81099031
   7.05796613  6.43118726  3.91082983
   9.30615836  5.92066777  2.36091007
   9.30615836  5.92066777  5.46074959
  11.04383110  4.18299504  2.36091007
  11.04383110  4.18299504  5.46074959
   8.79563887  8.16886000  0.81099031
   8.79563887  8.16886000  3.91082983
   1.18222580  0.55544694  0.81099031
   1.18222580  0.55544694  3.91082983
   3.43041803 -1.69274529  2.36091007
   3.43041803 -1.69274529  5.46074959
   3.43041804  2.80363917  2.36091007
   3.43041804  2.80363917  5.46074959
   5.67861027  0.55544694  0.81099031
   5.67861027  0.55544694  3.91082983
   5.67861027  5.05183140  0.81099031
   5.67861027  5.05183140  3.91082983
   7.92680250  2.80363917  2.36091007
   7.92680250  2.80363917  5.46074959
   7.92680250  7.30002363  2.36091007
   7.92680250  7.30002363  5.46074959
  10.17499473  5.05183140  0.81099031
  10.17499473  5.05183140  3.91082983
 


--------------------------------------------------------------------------------------------------------


 k-point  1 :   0.0000 0.0000 0.0000  plane waves:   22085
 k-point  2 :   0.2500 0.0000 0.0000  plane waves:   21989
 k-point  3 :   0.5000 0.0000 0.0000  plane waves:   22078
 k-point  4 :   0.0000 0.2500 0.0000  plane waves:   22033
 k-point  5 :   0.2500 0.2500 0.0000  plane waves:   22020
 k-point  6 :   0.5000 0.2500 0.0000  plane waves:   21998
 k-point  7 :  -0.2500 0.2500 0.0000  plane waves:   22020
 k-point  8 :   0.0000 0.5000 0.0000  plane waves:   22040
 k-point  9 :   0.2500 0.5000 0.0000  plane waves:   21998
 k-point 10 :   0.5000 0.5000 0.0000  plane waves:   21960

 maximum and minimum number of plane-waves per node :      3714     3631

 maximum number of plane-waves:     22085
 maximum index in each direction: 
   IXMAX=   11   IYMAX=   11   IZMAX=   40
   IXMIN=  -11   IYMIN=  -12   IZMIN=  -40

 NGX is ok and might be reduce to  46
 NGY is ok and might be reduce to  48
 WARNING: aliasing errors must be expected set NGZ to 162 to avoid them
 aliasing errors are usually negligible using standard VASP settings
 and one can safely disregard these warnings

 real space projection operators:
  total allocation   :      18157.81 KBytes
  max/ min on nodes  :       3060.81       2963.31


 parallel 3D FFT for wavefunctions:
    minimum data exchange during FFTs selected (reduces bandwidth)
 parallel 3D FFT for charge:
    minimum data exchange during FFTs selected (reduces bandwidth)


 total amount of memory used by VASP on root node   129087. kBytes
========================================================================

   base      :      30000. kBytes
   nonlr-proj:       8756. kBytes
   fftplans  :       5964. kBytes
   grid      :      14807. kBytes
   one-center:        248. kBytes
   wavefun   :      69312. kBytes
 
     INWAV:  cpu time    0.0000: real time    0.0000
 Broyden mixing: mesh for mixing (old mesh)
   NGX = 23   NGY = 23   NGZ = 81
  (NGX  = 96   NGY  = 96   NGZ  =320)
  gives a total of  42849 points

 initial charge density was supplied:
 charge density of overlapping atoms calculated
 number of electron     336.0000000 magnetization      48.0000000
 keeping initial charge density in first step


--------------------------------------------------------------------------------------------------------


 Maximum index for non-local projection operator          963
 Maximum index for augmentation-charges         1100 (set IRDMAX)


--------------------------------------------------------------------------------------------------------


 First call to EWALD:  gamma=   0.186
 Maximum number of real-space cells 4x 4x 1
 Maximum number of reciprocal cells 2x 2x 6

 FEWALD executed in parallel
    FEWALD:  cpu time    0.0030: real time    0.0022


----------------------------------------- Iteration    1(   1)  ---------------------------------------


    POTLOK:  cpu time    0.3349: real time    0.3348
    SETDIJ:  cpu time    0.0350: real time    0.0348
     EDDAV:  cpu time   47.7647: real time   47.7713
       DOS:  cpu time    0.0060: real time    0.0054
    --------------------------------------------
      LOOP:  cpu time   48.1447: real time   48.1543

 eigenvalue-minimisations  :  9128
 total energy-change (2. order) : 0.2785444E+04  (-0.1650849E+05)
 number of electron     336.0000000 magnetization      48.0000000
 augmentation part      336.0000000 magnetization      48.0000000

 Free energy of the ion-electron system (eV)
  ---------------------------------------------------
  alpha Z        PSCENC =       669.22617347
  Ewald energy   TEWEN  =     66922.29252904
  -Hartree energ DENC   =    -90727.86174138
  -exchange      EXHF   =         0.00000000
  -V(xc)+E(xc)   XCENC  =       618.99586751
  PAW double counting   =     20780.61670850   -20167.12706525
  entropy T*S    EENTRO =        -0.01936573
  eigenvalues    EBANDS =       991.24568602
  atomic energy  EATOM  =     23698.07519905
  Solvation  Ediel_sol  =         0.00000000
  ---------------------------------------------------
  free energy    TOTEN  =      2785.44399124 eV

  energy without entropy =     2785.46335697  energy(sigma->0) =     2785.45367410


--------------------------------------------------------------------------------------------------------




----------------------------------------- Iteration    1(   2)  ---------------------------------------


     EDDAV:  cpu time   53.3329: real time   53.3381
       DOS:  cpu time    0.0050: real time    0.0053
    --------------------------------------------
      LOOP:  cpu time   53.3389: real time   53.3458

 eigenvalue-minimisations  : 10520
 total energy-change (2. order) :-0.2841221E+04  (-0.2599368E+04)
 number of electron     336.0000000 magnetization      48.0000000
 augmentation part      336.0000000 magnetization      48.0000000

 Free energy of the ion-electron system (eV)
  ---------------------------------------------------
  alpha Z        PSCENC =       669.22617347
  Ewald energy   TEWEN  =     66922.29252904
  -Hartree energ DENC   =    -90727.86174138
  -exchange      EXHF   =         0.00000000
  -V(xc)+E(xc)   XCENC  =       618.99586751
  PAW double counting   =     20780.61670850   -20167.12706525
  entropy T*S    EENTRO =        -0.03593909
  eigenvalues    EBANDS =     -1849.95904510
  atomic energy  EATOM  =     23698.07519905
  Solvation  Ediel_sol  =         0.00000000
  ---------------------------------------------------
  free energy    TOTEN  =       -55.77731324 eV

  energy without entropy =      -55.74137415  energy(sigma->0) =      -55.75934370


--------------------------------------------------------------------------------------------------------




----------------------------------------- Iteration    1(   3)  ---------------------------------------


     EDDAV:  cpu time   50.7433: real time   50.7489
       DOS:  cpu time    0.0050: real time    0.0052
    --------------------------------------------
      LOOP:  cpu time   50.7483: real time   50.7663

 eigenvalue-minimisations  :  9864
 total energy-change (2. order) :-0.3101781E+03  (-0.3012911E+03)
 number of electron     336.0000000 magnetization      48.0000000
 augmentation part      336.0000000 magnetization      48.0000000

 Free energy of the ion-electron system (eV)
  ---------------------------------------------------
  alpha Z        PSCENC =       669.22617347
  Ewald energy   TEWEN  =     66922.29252904
  -Hartree energ DENC   =    -90727.86174138
  -exchange      EXHF   =         0.00000000
  -V(xc)+E(xc)   XCENC  =       618.99586751
  PAW double counting   =     20780.61670850   -20167.12706525
  entropy T*S    EENTRO =        -0.03305510
  eigenvalues    EBANDS =     -2160.14003816
  atomic energy  EATOM  =     23698.07519905
  Solvation  Ediel_sol  =         0.00000000
  ---------------------------------------------------
  free energy    TOTEN  =      -365.95542231 eV

  energy without entropy =     -365.92236720  energy(sigma->0) =     -365.93889475


--------------------------------------------------------------------------------------------------------




----------------------------------------- Iteration    1(   4)  ---------------------------------------


     EDDAV:  cpu time   53.0839: real time   53.0905
       DOS:  cpu time    0.0050: real time    0.0053
    --------------------------------------------
      LOOP:  cpu time   53.0909: real time   53.1094

 eigenvalue-minimisations  : 10456
 total energy-change (2. order) :-0.7120850E+01  (-0.7086740E+01)
 number of electron     336.0000000 magnetization      48.0000000
 augmentation part      336.0000000 magnetization      48.0000000

 Free energy of the ion-electron system (eV)
  ---------------------------------------------------
  alpha Z        PSCENC =       669.22617347
  Ewald energy   TEWEN  =     66922.29252904
  -Hartree energ DENC   =    -90727.86174138
  -exchange      EXHF   =         0.00000000
  -V(xc)+E(xc)   XCENC  =       618.99586751
  PAW double counting   =     20780.61670850   -20167.12706525
  entropy T*S    EENTRO =        -0.03345042
  eigenvalues    EBANDS =     -2167.26049324
  atomic energy  EATOM  =     23698.07519905
  Solvation  Ediel_sol  =         0.00000000
  ---------------------------------------------------
  free energy    TOTEN  =      -373.07627270 eV

  energy without entropy =     -373.04282228  energy(sigma->0) =     -373.05954749


--------------------------------------------------------------------------------------------------------




----------------------------------------- Iteration    1(   5)  ---------------------------------------


     EDDAV:  cpu time   52.9639: real time   52.9689
       DOS:  cpu time    0.0060: real time    0.0054
    CHARGE:  cpu time    1.9187: real time    1.9190
    MIXING:  cpu time    0.0070: real time    0.0069
    --------------------------------------------
      LOOP:  cpu time   54.8957: real time   54.9131

 eigenvalue-minimisations  : 10424
 total energy-change (2. order) :-0.1564371E+00  (-0.1562283E+00)
 number of electron     335.9999901 magnetization      43.7652375
 augmentation part       69.6934510 magnetization      37.2747354

 Broyden mixing:
  rms(total) = 0.12431E+02    rms(broyden)= 0.12430E+02
  rms(prec ) = 0.12677E+02
  weight for this iteration     100.00

 Free energy of the ion-electron system (eV)
  ---------------------------------------------------
  alpha Z        PSCENC =       669.22617347
  Ewald energy   TEWEN  =     66922.29252904
  -Hartree energ DENC   =    -90727.86174138
  -exchange      EXHF   =         0.00000000
  -V(xc)+E(xc)   XCENC  =       618.99586751
  PAW double counting   =     20780.61670850   -20167.12706525
  entropy T*S    EENTRO =        -0.03355850
  eigenvalues    EBANDS =     -2167.41682224
  atomic energy  EATOM  =     23698.07519905
  Solvation  Ediel_sol  =         0.00000000
  ---------------------------------------------------
  free energy    TOTEN  =      -373.23270979 eV

  energy without entropy =     -373.19915128  energy(sigma->0) =     -373.21593054


--------------------------------------------------------------------------------------------------------




----------------------------------------- Iteration    1(   6)  ---------------------------------------


    POTLOK:  cpu time    0.3279: real time    0.3283
    SETDIJ:  cpu time    0.0350: real time    0.0348
    EDDIAG:  cpu time    8.2787: real time    8.2797
  RMM-DIIS:  cpu time   29.3585: real time   29.3614
    ORTHCH:  cpu time    1.4058: real time    1.4061
       DOS:  cpu time    0.0050: real time    0.0049
    CHARGE:  cpu time    1.9207: real time    1.9208
    MIXING:  cpu time    0.0080: real time    0.0079
    --------------------------------------------
      LOOP:  cpu time   41.3397: real time   41.3574

 eigenvalue-minimisations  :  9120
 total energy-change (2. order) : 0.8188960E+02  (-0.4628970E+02)
 number of electron     335.9999930 magnetization      41.0457543
 augmentation part       81.2075895 magnetization      30.6305672

 Broyden mixing:
  rms(total) = 0.83879E+01    rms(broyden)= 0.83860E+01
  rms(prec ) = 0.87738E+01
  weight for this iteration     100.00

 eigenvalues of (default mixing * dielectric matrix)
  average eigenvalue GAMMA=   0.7920
  0.7920

 Free energy of the ion-electron system (eV)
  ---------------------------------------------------
  alpha Z        PSCENC =       669.22617347
  Ewald energy   TEWEN  =     66922.29252904
  -Hartree energ DENC   =    -90886.92160590
  -exchange      EXHF   =         0.00000000
  -V(xc)+E(xc)   XCENC  =       670.62677446
  PAW double counting   =     24183.85562287   -23613.21788514
  entropy T*S    EENTRO =        -0.04731063
  eigenvalues    EBANDS =     -1935.23260799
  atomic energy  EATOM  =     23698.07519905
  Solvation  Ediel_sol  =         0.00000000
  ---------------------------------------------------
  free energy    TOTEN  =      -291.34311075 eV

  energy without entropy =     -291.29580012  energy(sigma->0) =     -291.31945544


--------------------------------------------------------------------------------------------------------




----------------------------------------- Iteration    1(   7)  ---------------------------------------


    POTLOK:  cpu time    0.3299: real time    0.3299
    SETDIJ:  cpu time    0.0350: real time    0.0350
    EDDIAG:  cpu time    8.2627: real time    8.2636
  RMM-DIIS:  cpu time   29.3845: real time   29.3870
    ORTHCH:  cpu time    1.4038: real time    1.4043
       DOS:  cpu time    0.0060: real time    0.0056
    CHARGE:  cpu time    1.9307: real time    1.9314
    MIXING:  cpu time    0.0080: real time    0.0075
    --------------------------------------------
      LOOP:  cpu time   41.3607: real time   41.3776

 eigenvalue-minimisations  :  9120
 total energy-change (2. order) :-0.1924085E+02  (-0.1574692E+02)
 number of electron     335.9999918 magnetization      37.3148533
 augmentation part       73.4237311 magnetization      30.6200082

 Broyden mixing:
  rms(total) = 0.67238E+01    rms(broyden)= 0.67220E+01
  rms(prec ) = 0.73283E+01
  weight for this iteration     100.00

 eigenvalues of (default mixing * dielectric matrix)
  average eigenvalue GAMMA=   0.8770
  1.3244  0.4295

 Free energy of the ion-electron system (eV)
  ---------------------------------------------------
  alpha Z        PSCENC =       669.22617347
  Ewald energy   TEWEN  =     66922.29252904
  -Hartree energ DENC   =    -91163.86598072
  -exchange      EXHF   =         0.00000000
  -V(xc)+E(xc)   XCENC  =       651.99321291
  PAW double counting   =     26267.32578245   -25702.55193484
  entropy T*S    EENTRO =        -0.05077012
  eigenvalues    EBANDS =     -1653.02816938
  atomic energy  EATOM  =     23698.07519905
  Solvation  Ediel_sol  =         0.00000000
  ---------------------------------------------------
  free energy    TOTEN  =      -310.58395813 eV

  energy without entropy =     -310.53318801  energy(sigma->0) =     -310.55857307


--------------------------------------------------------------------------------------------------------




----------------------------------------- Iteration    1(   8)  ---------------------------------------


    POTLOK:  cpu time    0.3279: real time    0.3277
    SETDIJ:  cpu time    0.0350: real time    0.0353
    EDDIAG:  cpu time    8.2827: real time    8.2835
  RMM-DIIS:  cpu time   29.4295: real time   29.4316
    ORTHCH:  cpu time    1.4038: real time    1.4044
       DOS:  cpu time    0.0060: real time    0.0055
    CHARGE:  cpu time    1.9307: real time    1.9308
    MIXING:  cpu time    0.0070: real time    0.0074
    --------------------------------------------
      LOOP:  cpu time   41.4227: real time   41.4400

 eigenvalue-minimisations  :  9120
 total energy-change (2. order) :-0.1097548E+02  (-0.3571845E+01)
 number of electron     335.9999925 magnetization      34.3352642
 augmentation part       72.9951534 magnetization      30.2105843

 Broyden mixing:
  rms(total) = 0.92168E+01    rms(broyden)= 0.92161E+01
  rms(prec ) = 0.10538E+02
  weight for this iteration     100.00

 eigenvalues of (default mixing * dielectric matrix)
  average eigenvalue GAMMA=   0.8008
  1.7164  0.4229  0.2632

 Free energy of the ion-electron system (eV)
  ---------------------------------------------------
  alpha Z        PSCENC =       669.22617347
  Ewald energy   TEWEN  =     66922.29252904
  -Hartree energ DENC   =    -90875.38330776
  -exchange      EXHF   =         0.00000000
  -V(xc)+E(xc)   XCENC  =       655.38750354
  PAW double counting   =     28236.17971386   -27685.99261086
  entropy T*S    EENTRO =        -0.01755646
  eigenvalues    EBANDS =     -1941.32708216
  atomic energy  EATOM  =     23698.07519905
  Solvation  Ediel_sol  =         0.00000000
  ---------------------------------------------------
  free energy    TOTEN  =      -321.55943828 eV

  energy without entropy =     -321.54188182  energy(sigma->0) =     -321.55066005


--------------------------------------------------------------------------------------------------------




----------------------------------------- Iteration    1(   9)  ---------------------------------------


    POTLOK:  cpu time    0.3280: real time    0.3274
    SETDIJ:  cpu time    0.0350: real time    0.0349
    EDDIAG:  cpu time    8.2677: real time    8.2687
  RMM-DIIS:  cpu time   29.4855: real time   29.4959
    ORTHCH:  cpu time    1.4018: real time    1.4018
       DOS:  cpu time    0.0050: real time    0.0054
    CHARGE:  cpu time    1.9377: real time    1.9376
    MIXING:  cpu time    0.0080: real time    0.0079
    --------------------------------------------
      LOOP:  cpu time   41.4697: real time   41.4936

 eigenvalue-minimisations  :  9120
 total energy-change (2. order) : 0.5528729E+02  (-0.4299266E+01)
 number of electron     335.9999921 magnetization      31.1591750
 augmentation part       73.5838704 magnetization      25.5822961

 Broyden mixing:
  rms(total) = 0.26654E+01    rms(broyden)= 0.26641E+01
  rms(prec ) = 0.33256E+01
  weight for this iteration     100.00

 eigenvalues of (default mixing * dielectric matrix)
  average eigenvalue GAMMA=   0.8634
  2.0673  0.6190  0.5576  0.2098

 Free energy of the ion-electron system (eV)
  ---------------------------------------------------
  alpha Z        PSCENC =       669.22617347
  Ewald energy   TEWEN  =     66922.29252904
  -Hartree energ DENC   =    -91108.22499199
  -exchange      EXHF   =         0.00000000
  -V(xc)+E(xc)   XCENC  =       663.03814767
  PAW double counting   =     29616.97864645   -29076.90960752
  entropy T*S    EENTRO =        -0.02992927
  eigenvalues    EBANDS =     -1650.71831326
  atomic energy  EATOM  =     23698.07519905
  Solvation  Ediel_sol  =         0.00000000
  ---------------------------------------------------
  free energy    TOTEN  =      -266.27214636 eV

  energy without entropy =     -266.24221709  energy(sigma->0) =     -266.25718172


--------------------------------------------------------------------------------------------------------




----------------------------------------- Iteration    1(  10)  ---------------------------------------


    POTLOK:  cpu time    0.3280: real time    0.3278
    SETDIJ:  cpu time    0.0350: real time    0.0349
    EDDIAG:  cpu time    8.2647: real time    8.2659
  RMM-DIIS:  cpu time   29.3345: real time   29.3372
    ORTHCH:  cpu time    1.4048: real time    1.4051
       DOS:  cpu time    0.0060: real time    0.0057
    CHARGE:  cpu time    1.9267: real time    1.9271
    MIXING:  cpu time    0.0080: real time    0.0079
    --------------------------------------------
      LOOP:  cpu time   41.3077: real time   41.3261

 eigenvalue-minimisations  :  9120
 total energy-change (2. order) :-0.4533955E+01  (-0.1737016E+01)
 number of electron     335.9999924 magnetization      30.4517403
 augmentation part       75.0755556 magnetization      25.0703769

 Broyden mixing:
  rms(total) = 0.37214E+01    rms(broyden)= 0.37203E+01
  rms(prec ) = 0.42336E+01
  weight for this iteration     100.00

 eigenvalues of (default mixing * dielectric matrix)
  average eigenvalue GAMMA=   0.7362
  2.0639  0.6128  0.5751  0.2529  0.1762

 Free energy of the ion-electron system (eV)
  ---------------------------------------------------
  alpha Z        PSCENC =       669.22617347
  Ewald energy   TEWEN  =     66922.29252904
  -Hartree energ DENC   =    -90949.23976784
  -exchange      EXHF   =         0.00000000
  -V(xc)+E(xc)   XCENC  =       661.93502065
  PAW double counting   =     30168.05431059   -29633.98168539
  entropy T*S    EENTRO =        -0.04518921
  eigenvalues    EBANDS =     -1807.12269196
  atomic energy  EATOM  =     23698.07519905
  Solvation  Ediel_sol  =         0.00000000
  ---------------------------------------------------
  free energy    TOTEN  =      -270.80610159 eV

  energy without entropy =     -270.76091238  energy(sigma->0) =     -270.78350698


--------------------------------------------------------------------------------------------------------




----------------------------------------- Iteration    1(  11)  ---------------------------------------


    POTLOK:  cpu time    0.3279: real time    0.3288
    SETDIJ:  cpu time    0.0350: real time    0.0349
    EDDIAG:  cpu time    8.3267: real time    8.3281
  RMM-DIIS:  cpu time   29.4555: real time   29.4586
    ORTHCH:  cpu time    1.4038: real time    1.4043
       DOS:  cpu time    0.0050: real time    0.0055
    CHARGE:  cpu time    1.9717: real time    1.9718
    MIXING:  cpu time    0.0080: real time    0.0079
    --------------------------------------------
      LOOP:  cpu time   41.5357: real time   41.5523

 eigenvalue-minimisations  :  9120
 total energy-change (2. order) : 0.7842539E+01  (-0.3964991E+00)
 number of electron     335.9999922 magnetization      29.9523338
 augmentation part       74.9711950 magnetization      23.3391620

 Broyden mixing:
  rms(total) = 0.18663E+01    rms(broyden)= 0.18656E+01
  rms(prec ) = 0.19422E+01
  weight for this iteration     100.00

 eigenvalues of (default mixing * dielectric matrix)
  average eigenvalue GAMMA=   0.6525
  1.9543  0.6218  0.4100  0.4100  0.3146  0.2041

 Free energy of the ion-electron system (eV)
  ---------------------------------------------------
  alpha Z        PSCENC =       669.22617347
  Ewald energy   TEWEN  =     66922.29252904
  -Hartree energ DENC   =    -91006.16929807
  -exchange      EXHF   =         0.00000000
  -V(xc)+E(xc)   XCENC  =       661.10202605
  PAW double counting   =     30172.51039200   -29638.38872809
  entropy T*S    EENTRO =        -0.02842965
  eigenvalues    EBANDS =     -1741.58342674
  atomic energy  EATOM  =     23698.07519905
  Solvation  Ediel_sol  =         0.00000000
  ---------------------------------------------------
  free energy    TOTEN  =      -262.96356294 eV

  energy without entropy =     -262.93513329  energy(sigma->0) =     -262.94934811


--------------------------------------------------------------------------------------------------------




----------------------------------------- Iteration    1(  12)  ---------------------------------------


    POTLOK:  cpu time    0.3279: real time    0.3276
    SETDIJ:  cpu time    0.0350: real time    0.0348
    EDDIAG:  cpu time    8.3247: real time    8.3255
  RMM-DIIS:  cpu time   29.5315: real time   29.5340
    ORTHCH:  cpu time    1.4048: real time    1.4051
       DOS:  cpu time    0.0060: real time    0.0056
    CHARGE:  cpu time    1.9727: real time    1.9735
    MIXING:  cpu time    0.0080: real time    0.0081
    --------------------------------------------
      LOOP:  cpu time   41.6117: real time   41.6285

 eigenvalue-minimisations  :  9120
 total energy-change (2. order) :-0.6039245E+01  (-0.2390687E+00)
 number of electron     335.9999924 magnetization      29.4043154
 augmentation part       74.9337829 magnetization      22.6953433

 Broyden mixing:
  rms(total) = 0.16995E+01    rms(broyden)= 0.16989E+01
  rms(prec ) = 0.21320E+01
  weight for this iteration     100.00

 eigenvalues of (default mixing * dielectric matrix)
  average eigenvalue GAMMA=   0.6055
  1.8650  0.6173  0.4925  0.4925  0.3847  0.2192  0.1670

 Free energy of the ion-electron system (eV)
  ---------------------------------------------------
  alpha Z        PSCENC =       669.22617347
  Ewald energy   TEWEN  =     66922.29252904
  -Hartree energ DENC   =    -90976.68135777
  -exchange      EXHF   =         0.00000000
  -V(xc)+E(xc)   XCENC  =       657.48389181
  PAW double counting   =     29996.25810504   -29461.45685105
  entropy T*S    EENTRO =        -0.03804304
  eigenvalues    EBANDS =     -1774.16245445
  atomic energy  EATOM  =     23698.07519905
  Solvation  Ediel_sol  =         0.00000000
  ---------------------------------------------------
  free energy    TOTEN  =      -269.00280790 eV

  energy without entropy =     -268.96476486  energy(sigma->0) =     -268.98378638


--------------------------------------------------------------------------------------------------------




----------------------------------------- Iteration    1(  13)  ---------------------------------------


    POTLOK:  cpu time    0.3270: real time    0.3269
    SETDIJ:  cpu time    0.0350: real time    0.0352
    EDDIAG:  cpu time    8.3187: real time    8.3189
  RMM-DIIS:  cpu time   29.4445: real time   29.4473
    ORTHCH:  cpu time    1.4038: real time    1.4038
       DOS:  cpu time    0.0060: real time    0.0056
    CHARGE:  cpu time    1.9777: real time    1.9787
    MIXING:  cpu time    0.0090: real time    0.0088
    --------------------------------------------
      LOOP:  cpu time   41.5227: real time   41.5391

 eigenvalue-minimisations  :  9120
 total energy-change (2. order) :-0.6234986E+01  (-0.1476217E+00)
 number of electron     335.9999923 magnetization      28.0417375
 augmentation part       74.9103518 magnetization      21.2247530

 Broyden mixing:
  rms(total) = 0.19395E+01    rms(broyden)= 0.19382E+01
  rms(prec ) = 0.27701E+01
  weight for this iteration     100.00

 eigenvalues of (default mixing * dielectric matrix)
  average eigenvalue GAMMA=   0.5819
  1.7251  0.6777  0.6777  0.6215  0.4257  0.2399  0.1844  0.1030

 Free energy of the ion-electron system (eV)
  ---------------------------------------------------
  alpha Z        PSCENC =       669.22617347
  Ewald energy   TEWEN  =     66922.29252904
  -Hartree energ DENC   =    -90967.23881788
  -exchange      EXHF   =         0.00000000
  -V(xc)+E(xc)   XCENC  =       654.21690390
  PAW double counting   =     29858.21721535   -29322.92116609
  entropy T*S    EENTRO =        -0.04375052
  eigenvalues    EBANDS =     -1787.06208028
  atomic energy  EATOM  =     23698.07519905
  Solvation  Ediel_sol  =         0.00000000
  ---------------------------------------------------
  free energy    TOTEN  =      -275.23779396 eV

  energy without entropy =     -275.19404343  energy(sigma->0) =     -275.21591870


--------------------------------------------------------------------------------------------------------




----------------------------------------- Iteration    1(  14)  ---------------------------------------


    POTLOK:  cpu time    0.3279: real time    0.3279
    SETDIJ:  cpu time    0.0350: real time    0.0348
    EDDIAG:  cpu time    8.3217: real time    8.3231
  RMM-DIIS:  cpu time   29.4855: real time   29.4879
    ORTHCH:  cpu time    1.4048: real time    1.4045
       DOS:  cpu time    0.0050: real time    0.0057
    CHARGE:  cpu time    1.9757: real time    1.9753
    MIXING:  cpu time    0.0090: real time    0.0092
    --------------------------------------------
      LOOP:  cpu time   41.5657: real time   41.5854

 eigenvalue-minimisations  :  9120
 total energy-change (2. order) :-0.7482503E+01  (-0.4448051E+00)
 number of electron     335.9999922 magnetization      24.7460240
 augmentation part       74.7148030 magnetization      18.0622246

 Broyden mixing:
  rms(total) = 0.11022E+01    rms(broyden)= 0.11010E+01
  rms(prec ) = 0.12391E+01
  weight for this iteration     100.00

 eigenvalues of (default mixing * dielectric matrix)
  average eigenvalue GAMMA=   0.6289
  1.4306  1.4306  0.8850  0.5409  0.5409  0.3287  0.2249  0.1883  0.0899

 Free energy of the ion-electron system (eV)
  ---------------------------------------------------
  alpha Z        PSCENC =       669.22617347
  Ewald energy   TEWEN  =     66922.29252904
  -Hartree energ DENC   =    -90966.10344162
  -exchange      EXHF   =         0.00000000
  -V(xc)+E(xc)   XCENC  =       648.59054878
  PAW double counting   =     29648.90735231   -29112.98975299
  entropy T*S    EENTRO =        -0.04505375
  eigenvalues    EBANDS =     -1790.67385101
  atomic energy  EATOM  =     23698.07519905
  Solvation  Ediel_sol  =         0.00000000
  ---------------------------------------------------
  free energy    TOTEN  =      -282.72029672 eV

  energy without entropy =     -282.67524298  energy(sigma->0) =     -282.69776985


--------------------------------------------------------------------------------------------------------




----------------------------------------- Iteration    1(  15)  ---------------------------------------


    POTLOK:  cpu time    0.3289: real time    0.3289
    SETDIJ:  cpu time    0.0340: real time    0.0348
    EDDIAG:  cpu time    8.3157: real time    8.3160
  RMM-DIIS:  cpu time   29.4315: real time   29.4348
    ORTHCH:  cpu time    1.4058: real time    1.4062
       DOS:  cpu time    0.0050: real time    0.0053
    CHARGE:  cpu time    1.9937: real time    1.9939
    MIXING:  cpu time    0.0090: real time    0.0091
    --------------------------------------------
      LOOP:  cpu time   41.5237: real time   41.5427

 eigenvalue-minimisations  :  9120
 total energy-change (2. order) :-0.1208658E+02  (-0.8237223E+00)
 number of electron     335.9999922 magnetization      22.8085752
 augmentation part       74.7818868 magnetization      16.3734121

 Broyden mixing:
  rms(total) = 0.11385E+01    rms(broyden)= 0.11382E+01
  rms(prec ) = 0.12358E+01
  weight for this iteration     100.00

 eigenvalues of (default mixing * dielectric matrix)
  average eigenvalue GAMMA=   0.6439
  1.6550  1.6550  0.8482  0.5809  0.4591  0.3689  0.3689  0.2277  0.1859  0.0895

 Free energy of the ion-electron system (eV)
  ---------------------------------------------------
  alpha Z        PSCENC =       669.22617347
  Ewald energy   TEWEN  =     66922.29252904
  -Hartree energ DENC   =    -90934.87729821
  -exchange      EXHF   =         0.00000000
  -V(xc)+E(xc)   XCENC  =       641.92453063
  PAW double counting   =     29591.55630859   -29056.66646455
  entropy T*S    EENTRO =        -0.04006925
  eigenvalues    EBANDS =     -1826.29778887
  atomic energy  EATOM  =     23698.07519905
  Solvation  Ediel_sol  =         0.00000000
  ---------------------------------------------------
  free energy    TOTEN  =      -294.80688009 eV

  energy without entropy =     -294.76681084  energy(sigma->0) =     -294.78684546


--------------------------------------------------------------------------------------------------------




----------------------------------------- Iteration    1(  16)  ---------------------------------------


    POTLOK:  cpu time    0.3289: real time    0.3289
    SETDIJ:  cpu time    0.0350: real time    0.0352
    EDDIAG:  cpu time    8.3207: real time    8.3219
  RMM-DIIS:  cpu time   29.4625: real time   29.4656
    ORTHCH:  cpu time    1.4078: real time    1.4075
       DOS:  cpu time    0.0050: real time    0.0054
    CHARGE:  cpu time    1.9357: real time    1.9356
    MIXING:  cpu time    0.0100: real time    0.0094
    --------------------------------------------
      LOOP:  cpu time   41.5077: real time   41.5236

 eigenvalue-minimisations  :  9120
 total energy-change (2. order) :-0.4486830E+01  (-0.3546101E+00)
 number of electron     335.9999923 magnetization      19.0900180
 augmentation part       74.8410122 magnetization      13.1611253

 Broyden mixing:
  rms(total) = 0.91996E+00    rms(broyden)= 0.91957E+00
  rms(prec ) = 0.10071E+01
  weight for this iteration     100.00

 eigenvalues of (default mixing * dielectric matrix)
  average eigenvalue GAMMA=   0.7296
  2.1421  2.1421  0.7902  0.7902  0.5425  0.5425  0.3749  0.2281  0.1867  0.1970
  0.0893

 Free energy of the ion-electron system (eV)
  ---------------------------------------------------
  alpha Z        PSCENC =       669.22617347
  Ewald energy   TEWEN  =     66922.29252904
  -Hartree energ DENC   =    -90920.27424869
  -exchange      EXHF   =         0.00000000
  -V(xc)+E(xc)   XCENC  =       639.56536292
  PAW double counting   =     29623.74161475   -29089.74157361
  entropy T*S    EENTRO =        -0.03504461
  eigenvalues    EBANDS =     -1842.14372221
  atomic energy  EATOM  =     23698.07519905
  Solvation  Ediel_sol  =         0.00000000
  ---------------------------------------------------
  free energy    TOTEN  =      -299.29370988 eV

  energy without entropy =     -299.25866527  energy(sigma->0) =     -299.27618758


--------------------------------------------------------------------------------------------------------




----------------------------------------- Iteration    1(  17)  ---------------------------------------


    POTLOK:  cpu time    0.3289: real time    0.3286
    SETDIJ:  cpu time    0.0350: real time    0.0353
    EDDIAG:  cpu time    8.3247: real time    8.3259
  RMM-DIIS:  cpu time   29.3945: real time   29.3964
    ORTHCH:  cpu time    1.4038: real time    1.4046
       DOS:  cpu time    0.0060: real time    0.0052
    CHARGE:  cpu time    1.9287: real time    1.9296
    MIXING:  cpu time    0.0100: real time    0.0098
    --------------------------------------------
      LOOP:  cpu time   41.4317: real time   41.4490

 eigenvalue-minimisations  :  9120
 total energy-change (2. order) :-0.4933623E+01  (-0.4182119E+00)
 number of electron     335.9999922 magnetization      17.3858266
 augmentation part       74.9132192 magnetization      12.3267075

 Broyden mixing:
  rms(total) = 0.72159E+00    rms(broyden)= 0.72142E+00
  rms(prec ) = 0.73816E+00
  weight for this iteration     100.00

 eigenvalues of (default mixing * dielectric matrix)
  average eigenvalue GAMMA=   0.7439
  2.3170  2.3170  0.8389  0.8389  0.5372  0.5372  0.4798  0.3507  0.2287  0.1866
  0.2051  0.0893

 Free energy of the ion-electron system (eV)
  ---------------------------------------------------
  alpha Z        PSCENC =       669.22617347
  Ewald energy   TEWEN  =     66922.29252904
  -Hartree energ DENC   =    -90904.62163858
  -exchange      EXHF   =         0.00000000
  -V(xc)+E(xc)   XCENC  =       636.29378506
  PAW double counting   =     29708.24685116   -29175.88220336
  entropy T*S    EENTRO =        -0.02340891
  eigenvalues    EBANDS =     -1857.83461996
  atomic energy  EATOM  =     23698.07519905
  Solvation  Ediel_sol  =         0.00000000
  ---------------------------------------------------
  free energy    TOTEN  =      -304.22733303 eV

  energy without entropy =     -304.20392412  energy(sigma->0) =     -304.21562857


--------------------------------------------------------------------------------------------------------




----------------------------------------- Iteration    1(  18)  ---------------------------------------


    POTLOK:  cpu time    0.3270: real time    0.3273
    SETDIJ:  cpu time    0.0350: real time    0.0349
    EDDIAG:  cpu time    8.3217: real time    8.3226
  RMM-DIIS:  cpu time   29.3775: real time   29.3798
    ORTHCH:  cpu time    1.4038: real time    1.4039
       DOS:  cpu time    0.0050: real time    0.0051
    CHARGE:  cpu time    2.0487: real time    2.0491
    MIXING:  cpu time    0.0280: real time    0.0275
    --------------------------------------------
      LOOP:  cpu time   41.5467: real time   41.5649

 eigenvalue-minimisations  :  9120
 total energy-change (2. order) :-0.7484843E+00  (-0.4774157E-01)
 number of electron     335.9999922 magnetization      15.8813043
 augmentation part       74.9346484 magnetization      10.9671657

 Broyden mixing:
  rms(total) = 0.63765E+00    rms(broyden)= 0.63757E+00
  rms(prec ) = 0.65351E+00
  weight for this iteration     100.00

 eigenvalues of (default mixing * dielectric matrix)
  average eigenvalue GAMMA=   0.7760
  2.7877  2.0618  1.0226  1.0226  0.5901  0.5901  0.4794  0.4794  0.3472  0.2299
  0.1866  0.2012  0.0893

 Free energy of the ion-electron system (eV)
  ---------------------------------------------------
  alpha Z        PSCENC =       669.22617347
  Ewald energy   TEWEN  =     66922.29252904
  -Hartree energ DENC   =    -90894.50957262
  -exchange      EXHF   =         0.00000000
  -V(xc)+E(xc)   XCENC  =       635.49722823
  PAW double counting   =     29720.19462443   -29188.17469546
  entropy T*S    EENTRO =        -0.02347336
  eigenvalues    EBANDS =     -1867.55383012
  atomic energy  EATOM  =     23698.07519905
  Solvation  Ediel_sol  =         0.00000000
  ---------------------------------------------------
  free energy    TOTEN  =      -304.97581734 eV

  energy without entropy =     -304.95234398  energy(sigma->0) =     -304.96408066


--------------------------------------------------------------------------------------------------------




----------------------------------------- Iteration    1(  19)  ---------------------------------------


    POTLOK:  cpu time    0.3489: real time    0.3507
    SETDIJ:  cpu time    0.0460: real time    0.0453
    EDDIAG:  cpu time    8.8177: real time    8.8195
  RMM-DIIS:  cpu time   30.1274: real time   30.1303
    ORTHCH:  cpu time    1.4048: real time    1.4047
       DOS:  cpu time    0.0060: real time    0.0057
    CHARGE:  cpu time    1.9437: real time    1.9448
    MIXING:  cpu time    0.0110: real time    0.0110
    --------------------------------------------
      LOOP:  cpu time   42.7075: real time   42.7251

 eigenvalue-minimisations  :  9120
 total energy-change (2. order) :-0.3303296E+00  (-0.1425037E-01)
 number of electron     335.9999922 magnetization      11.9522451
 augmentation part       74.9121278 magnetization       7.2682269

 Broyden mixing:
  rms(total) = 0.52105E+00    rms(broyden)= 0.52101E+00
  rms(prec ) = 0.53666E+00
  weight for this iteration     100.00

 eigenvalues of (default mixing * dielectric matrix)
  average eigenvalue GAMMA=   0.8522
  4.0547  1.6261  1.2483  1.2483  0.6589  0.6589  0.5263  0.5263  0.3691  0.3055
  0.2305  0.1866  0.2014  0.0893

 Free energy of the ion-electron system (eV)
  ---------------------------------------------------
  alpha Z        PSCENC =       669.22617347
  Ewald energy   TEWEN  =     66922.29252904
  -Hartree energ DENC   =    -90895.45473961
  -exchange      EXHF   =         0.00000000
  -V(xc)+E(xc)   XCENC  =       635.03207335
  PAW double counting   =     29763.73799263   -29232.01833939
  entropy T*S    EENTRO =        -0.03113503
  eigenvalues    EBANDS =     -1866.16590049
  atomic energy  EATOM  =     23698.07519905
  Solvation  Ediel_sol  =         0.00000000
  ---------------------------------------------------
  free energy    TOTEN  =      -305.30614696 eV

  energy without entropy =     -305.27501193  energy(sigma->0) =     -305.29057945


--------------------------------------------------------------------------------------------------------




----------------------------------------- Iteration    1(  20)  ---------------------------------------


    POTLOK:  cpu time    0.3279: real time    0.3277
    SETDIJ:  cpu time    0.0350: real time    0.0351
    EDDIAG:  cpu time    8.3307: real time    8.3311
  RMM-DIIS:  cpu time   29.3825: real time   29.3853
    ORTHCH:  cpu time    1.4038: real time    1.4042
       DOS:  cpu time    0.0060: real time    0.0056
    CHARGE:  cpu time    1.9357: real time    1.9357
    MIXING:  cpu time    0.0110: real time    0.0109
    --------------------------------------------
      LOOP:  cpu time   41.4337: real time   41.4497

 eigenvalue-minimisations  :  9120
 total energy-change (2. order) :-0.1071079E+01  (-0.3933348E-01)
 number of electron     335.9999922 magnetization       9.5441355
 augmentation part       74.8799397 magnetization       5.7787788

 Broyden mixing:
  rms(total) = 0.44464E+00    rms(broyden)= 0.44440E+00
  rms(prec ) = 0.46493E+00
  weight for this iteration     100.00

 eigenvalues of (default mixing * dielectric matrix)
  average eigenvalue GAMMA=   0.8815
  4.5761  1.7221  1.3532  1.3532  0.6680  0.6680  0.6085  0.4710  0.4710  0.3529
  0.2722  0.2297  0.1866  0.2013  0.0893

 Free energy of the ion-electron system (eV)
  ---------------------------------------------------
  alpha Z        PSCENC =       669.22617347
  Ewald energy   TEWEN  =     66922.29252904
  -Hartree energ DENC   =    -90896.27827680
  -exchange      EXHF   =         0.00000000
  -V(xc)+E(xc)   XCENC  =       633.90666016
  PAW double counting   =     29825.96350660   -29294.65358721
  entropy T*S    EENTRO =        -0.04715060
  eigenvalues    EBANDS =     -1864.86228016
  atomic energy  EATOM  =     23698.07519905
  Solvation  Ediel_sol  =         0.00000000
  ---------------------------------------------------
  free energy    TOTEN  =      -306.37722644 eV

  energy without entropy =     -306.33007584  energy(sigma->0) =     -306.35365114


--------------------------------------------------------------------------------------------------------




----------------------------------------- Iteration    1(  21)  ---------------------------------------


    POTLOK:  cpu time    0.3250: real time    0.3251
    SETDIJ:  cpu time    0.0350: real time    0.0350
    EDDIAG:  cpu time    8.2897: real time    8.2916
  RMM-DIIS:  cpu time   29.2316: real time   29.2363
    ORTHCH:  cpu time    1.4078: real time    1.4088
       DOS:  cpu time    0.0060: real time    0.0056
    CHARGE:  cpu time    1.9527: real time    1.9527
    MIXING:  cpu time    0.0120: real time    0.0117
    --------------------------------------------
      LOOP:  cpu time   41.2607: real time   41.2794

 eigenvalue-minimisations  :  9121
 total energy-change (2. order) :-0.5179983E+00  (-0.2203792E-01)
 number of electron     335.9999922 magnetization       7.8353259
 augmentation part       74.9040934 magnetization       4.5131304

 Broyden mixing:
  rms(total) = 0.34513E+00    rms(broyden)= 0.34493E+00
  rms(prec ) = 0.36017E+00
  weight for this iteration     100.00

 eigenvalues of (default mixing * dielectric matrix)
  average eigenvalue GAMMA=   0.9318
  5.3793  1.7718  1.4823  1.4823  0.7233  0.7233  0.6220  0.4776  0.4776  0.4671
  0.3391  0.0893  0.1866  0.2012  0.2301  0.2563

 Free energy of the ion-electron system (eV)
  ---------------------------------------------------
  alpha Z        PSCENC =       669.22617347
  Ewald energy   TEWEN  =     66922.29252904
  -Hartree energ DENC   =    -90887.51354483
  -exchange      EXHF   =         0.00000000
  -V(xc)+E(xc)   XCENC  =       633.22099834
  PAW double counting   =     29771.31802494   -29239.68706109
  entropy T*S    EENTRO =        -0.04595204
  eigenvalues    EBANDS =     -1873.78159165
  atomic energy  EATOM  =     23698.07519905
  Solvation  Ediel_sol  =         0.00000000
  ---------------------------------------------------
  free energy    TOTEN  =      -306.89522476 eV

  energy without entropy =     -306.84927272  energy(sigma->0) =     -306.87224874


--------------------------------------------------------------------------------------------------------




----------------------------------------- Iteration    1(  22)  ---------------------------------------


    POTLOK:  cpu time    0.3270: real time    0.3270
    SETDIJ:  cpu time    0.0350: real time    0.0348
    EDDIAG:  cpu time    8.2777: real time    8.2787
  RMM-DIIS:  cpu time   29.2975: real time   29.3003
    ORTHCH:  cpu time    1.4098: real time    1.4098
       DOS:  cpu time    0.0060: real time    0.0058
    CHARGE:  cpu time    1.9477: real time    1.9478
    MIXING:  cpu time    0.0120: real time    0.0123
    --------------------------------------------
      LOOP:  cpu time   41.3137: real time   41.3305

 eigenvalue-minimisations  :  9120
 total energy-change (2. order) :-0.2696403E+00  (-0.8312590E-02)
 number of electron     335.9999922 magnetization       6.6409963
 augmentation part       74.8701065 magnetization       3.9245719

 Broyden mixing:
  rms(total) = 0.33264E+00    rms(broyden)= 0.33243E+00
  rms(prec ) = 0.34710E+00
  weight for this iteration     100.00

 eigenvalues of (default mixing * dielectric matrix)
  average eigenvalue GAMMA=   0.9438
  5.9217  1.8244  1.5230  1.5230  0.7697  0.7697  0.6055  0.5037  0.5037  0.5320
  0.3494  0.0893  0.2844  0.1866  0.2015  0.2322  0.2245

 Free energy of the ion-electron system (eV)
  ---------------------------------------------------
  alpha Z        PSCENC =       669.22617347
  Ewald energy   TEWEN  =     66922.29252904
  -Hartree energ DENC   =    -90887.56228123
  -exchange      EXHF   =         0.00000000
  -V(xc)+E(xc)   XCENC  =       632.92353231
  PAW double counting   =     29760.19598696   -29228.33665476
  entropy T*S    EENTRO =        -0.04621719
  eigenvalues    EBANDS =     -1873.93313270
  atomic energy  EATOM  =     23698.07519905
  Solvation  Ediel_sol  =         0.00000000
  ---------------------------------------------------
  free energy    TOTEN  =      -307.16486505 eV

  energy without entropy =     -307.11864786  energy(sigma->0) =     -307.14175645


--------------------------------------------------------------------------------------------------------




----------------------------------------- Iteration    1(  23)  ---------------------------------------


    POTLOK:  cpu time    0.3279: real time    0.3279
    SETDIJ:  cpu time    0.0360: real time    0.0352
    EDDIAG:  cpu time    8.2727: real time    8.2741
  RMM-DIIS:  cpu time   29.3775: real time   29.3798
    ORTHCH:  cpu time    1.4048: real time    1.4045
       DOS:  cpu time    0.0050: real time    0.0055
    CHARGE:  cpu time    1.9557: real time    1.9559
    MIXING:  cpu time    0.0130: real time    0.0127
    --------------------------------------------
      LOOP:  cpu time   41.3927: real time   41.4094

 eigenvalue-minimisations  :  9120
 total energy-change (2. order) :-0.1118423E+00  (-0.3712698E-02)
 number of electron     335.9999922 magnetization       4.5633817
 augmentation part       74.8498212 magnetization       2.2912816

 Broyden mixing:
  rms(total) = 0.30143E+00    rms(broyden)= 0.30130E+00
  rms(prec ) = 0.31671E+00
  weight for this iteration     100.00

 eigenvalues of (default mixing * dielectric matrix)
  average eigenvalue GAMMA=   0.9906
  6.6050  1.9384  1.5603  1.5603  0.9676  0.9676  0.5836  0.5836  0.6069  0.4660
  0.4660  0.3419  0.0893  0.2593  0.1866  0.2298  0.2012  0.2173

 Free energy of the ion-electron system (eV)
  ---------------------------------------------------
  alpha Z        PSCENC =       669.22617347
  Ewald energy   TEWEN  =     66922.29252904
  -Hartree energ DENC   =    -90887.26322598
  -exchange      EXHF   =         0.00000000
  -V(xc)+E(xc)   XCENC  =       632.77546753
  PAW double counting   =     29759.24026605   -29227.26925423
  entropy T*S    EENTRO =        -0.04428523
  eigenvalues    EBANDS =     -1874.30957702
  atomic energy  EATOM  =     23698.07519905
  Solvation  Ediel_sol  =         0.00000000
  ---------------------------------------------------
  free energy    TOTEN  =      -307.27670732 eV

  energy without entropy =     -307.23242210  energy(sigma->0) =     -307.25456471


--------------------------------------------------------------------------------------------------------




----------------------------------------- Iteration    1(  24)  ---------------------------------------


    POTLOK:  cpu time    0.3280: real time    0.3273
    SETDIJ:  cpu time    0.0340: real time    0.0350
    EDDIAG:  cpu time    8.2767: real time    8.2780
  RMM-DIIS:  cpu time   29.3675: real time   29.3699
    ORTHCH:  cpu time    1.4058: real time    1.4061
       DOS:  cpu time    0.0060: real time    0.0057
    CHARGE:  cpu time    1.9557: real time    1.9564
    MIXING:  cpu time    0.0140: real time    0.0134
    --------------------------------------------
      LOOP:  cpu time   41.3887: real time   41.4063

 eigenvalue-minimisations  :  9120
 total energy-change (2. order) :-0.2295009E+00  (-0.7883619E-02)
 number of electron     335.9999922 magnetization       1.9867690
 augmentation part       74.8852661 magnetization       0.3614206

 Broyden mixing:
  rms(total) = 0.20993E+00    rms(broyden)= 0.20967E+00
  rms(prec ) = 0.23399E+00
  weight for this iteration     100.00

 eigenvalues of (default mixing * dielectric matrix)
  average eigenvalue GAMMA=   1.1331
  9.3134  1.7213  1.7213  1.2636  1.2636  1.1251  0.8771  0.6473  0.6473  0.4941
  0.4941  0.4474  0.3411  0.0893  0.2571  0.2300  0.1866  0.2012  0.2084

 Free energy of the ion-electron system (eV)
  ---------------------------------------------------
  alpha Z        PSCENC =       669.22617347
  Ewald energy   TEWEN  =     66922.29252904
  -Hartree energ DENC   =    -90876.43007649
  -exchange      EXHF   =         0.00000000
  -V(xc)+E(xc)   XCENC  =       632.38775551
  PAW double counting   =     29732.94519511   -29200.74658707
  entropy T*S    EENTRO =        -0.04594616
  eigenvalues    EBANDS =     -1885.21045067
  atomic energy  EATOM  =     23698.07519905
  Solvation  Ediel_sol  =         0.00000000
  ---------------------------------------------------
  free energy    TOTEN  =      -307.50620819 eV

  energy without entropy =     -307.46026204  energy(sigma->0) =     -307.48323511


--------------------------------------------------------------------------------------------------------




----------------------------------------- Iteration    1(  25)  ---------------------------------------


    POTLOK:  cpu time    0.3259: real time    0.3264
    SETDIJ:  cpu time    0.0350: real time    0.0351
    EDDIAG:  cpu time    8.2817: real time    8.2825
  RMM-DIIS:  cpu time   29.1836: real time   29.1870
    ORTHCH:  cpu time    1.4038: real time    1.4042
       DOS:  cpu time    0.0060: real time    0.0057
    CHARGE:  cpu time    1.9517: real time    1.9525
    MIXING:  cpu time    0.0140: real time    0.0135
    --------------------------------------------
      LOOP:  cpu time   41.2037: real time   41.2204

 eigenvalue-minimisations  :  9120
 total energy-change (2. order) :-0.1634190E+00  (-0.7872000E-02)
 number of electron     335.9999922 magnetization       0.8195645
 augmentation part       74.8952062 magnetization       0.0639160

 Broyden mixing:
  rms(total) = 0.15273E+00    rms(broyden)= 0.15220E+00
  rms(prec ) = 0.16323E+00
  weight for this iteration     100.00

 eigenvalues of (default mixing * dielectric matrix)
  average eigenvalue GAMMA=   1.2457
 11.3581  2.1482  2.1482  1.4254  1.4254  0.8436  0.8436  0.6770  0.5767  0.5767
  0.5043  0.5043  0.3755  0.3374  0.0893  0.2538  0.2299  0.1866  0.2011  0.2090

 Free energy of the ion-electron system (eV)
  ---------------------------------------------------
  alpha Z        PSCENC =       669.22617347
  Ewald energy   TEWEN  =     66922.29252904
  -Hartree energ DENC   =    -90869.77907135
  -exchange      EXHF   =         0.00000000
  -V(xc)+E(xc)   XCENC  =       632.13102142
  PAW double counting   =     29718.63701392   -29186.17520024
  entropy T*S    EENTRO =        -0.04533513
  eigenvalues    EBANDS =     -1892.03195735
  atomic energy  EATOM  =     23698.07519905
  Solvation  Ediel_sol  =         0.00000000
  ---------------------------------------------------
  free energy    TOTEN  =      -307.66962717 eV

  energy without entropy =     -307.62429204  energy(sigma->0) =     -307.64695960


[...]
    209       7.3059      0.00000
    210       7.3059      0.00000
    211       7.7698      0.00000
    212       7.7698      0.00000
    213       8.9003      0.00000
    214       8.9003      0.00000
    215       9.0334      0.00000
    216       9.0335      0.00000
    217       9.8461      0.00000
    218       9.8461      0.00000
    219       9.8644      0.00000
    220       9.8645      0.00000
    221      10.1945      0.00000
    222      10.1945      0.00000
    223      10.3103      0.00000
    224      10.3103      0.00000
    225      10.4897      0.00000
    226      10.4897      0.00000
    227      10.5708      0.00000
    228      10.5708      0.00000


--------------------------------------------------------------------------------------------------------


 soft charge-density along one line, spin component           1
         0         1         2         3         4         5         6         7         8         9
 total charge-density along one line
 
 soft charge-density along one line, spin component           2
         0         1         2         3         4         5         6         7         8         9
 total charge-density along one line
 
 pseudopotential strength for first ion, spin component:           1
 12.758 -15.570  -0.043  -0.000  -0.043   0.054   0.000   0.054
-15.570  19.026   0.055   0.000   0.055  -0.070  -0.000  -0.070
 -0.043   0.055  -9.100  -0.000  -0.007  11.060   0.000   0.010
 -0.000   0.000  -0.000  -9.151  -0.000   0.000  11.129   0.000
 -0.043   0.055  -0.007  -0.000  -9.100   0.010   0.000  11.060
  0.054  -0.070  11.060   0.000   0.010 -13.318  -0.000  -0.013
  0.000  -0.000   0.000  11.129   0.000  -0.000 -13.411  -0.000
  0.054  -0.070   0.010   0.000  11.060  -0.013  -0.000 -13.318
 pseudopotential strength for first ion, spin component:           2
 12.757 -15.569  -0.043  -0.000  -0.043   0.054   0.000   0.054
-15.569  19.024   0.055   0.000   0.055  -0.070  -0.000  -0.070
 -0.043   0.055  -9.099  -0.000  -0.008  11.058   0.000   0.011
 -0.000   0.000  -0.000  -9.151  -0.000   0.000  11.128   0.000
 -0.043   0.055  -0.008  -0.000  -9.099   0.011   0.000  11.058
  0.054  -0.070  11.058   0.000   0.011 -13.316  -0.000  -0.015
  0.000  -0.000   0.000  11.128   0.000  -0.000 -13.410  -0.000
  0.054  -0.070   0.011   0.000  11.058  -0.015  -0.000 -13.316
 total augmentation occupancy for first ion, spin component:           1
  2.381   0.222   0.104   0.000   0.104   0.037   0.000   0.037
  0.222   0.049   0.134   0.000   0.134   0.018   0.000   0.018
  0.104   0.134   1.827   0.000   0.068   0.140   0.000   0.028
  0.000   0.000   0.000   1.865  -0.000   0.000   0.210  -0.000
  0.104   0.134   0.068  -0.000   1.827   0.028   0.000   0.140
  0.037   0.018   0.140   0.000   0.028   0.017   0.000   0.005
  0.000   0.000   0.000   0.210   0.000   0.000   0.027  -0.000
  0.037   0.018   0.028  -0.000   0.140   0.005  -0.000   0.017
 total augmentation occupancy for first ion, spin component:           2
 -0.000  -0.000  -0.000  -0.000  -0.000  -0.000  -0.000  -0.000
 -0.000  -0.000  -0.000   0.000  -0.000  -0.000  -0.000  -0.000
 -0.000  -0.000   0.001   0.000  -0.001  -0.000   0.000   0.000
 -0.000   0.000   0.000   0.000   0.000   0.000  -0.000  -0.000
 -0.000  -0.000  -0.001   0.000   0.001   0.000  -0.000  -0.000
 -0.000  -0.000  -0.000   0.000   0.000  -0.000  -0.000   0.000
 -0.000  -0.000   0.000  -0.000  -0.000  -0.000  -0.000  -0.000
 -0.000  -0.000   0.000  -0.000  -0.000   0.000  -0.000  -0.000


------------------------ aborting loop because EDIFF is reached ----------------------------------------


    CHARGE:  cpu time    1.9157: real time    1.9162
    FORLOC:  cpu time    0.0310: real time    0.0310
    FORNL :  cpu time   11.6932: real time   11.6956
    STRESS:  cpu time   35.4786: real time   35.4895
    FORCOR:  cpu time    0.3399: real time    0.3402
    FORHAR:  cpu time    0.0630: real time    0.0628
    MIXING:  cpu time    0.0080: real time    0.0077
    OFIELD:  cpu time    0.0000: real time    0.0000

 ---------------------------------------------------------------------------------------------

         DFTD3 V3.0 Rev 1        
 Edisp (eV)   -9.14461

 E6    (eV) :    -5.6396
 E8    (eV) :    -3.5050
 % E8        : 38.33
    FORVDW:  cpu time    0.3239: real time    0.3236

  FORCE on cell =-STRESS in cart. coord.  units (eV):
  Direction    XX          YY          ZZ          XY          YZ          ZX
  --------------------------------------------------------------------------------------
  Alpha Z   669.22617   669.22617   669.22617
  Ewald   -8025.82702 -8025.27781 82260.36684-87416.20237     0.07402     0.04755
  Hartree  1240.26469  1240.40396 87640.50438-85046.43815     0.01261    -0.00247
  E(xc)   -1638.11410 -1638.10731 -1634.32470    -1.40715     0.00077     0.00090
  Local    1231.72595  1231.26023************172450.33936    -0.06587    -0.02034
  n-local  -629.05336  -628.96855  -569.90675   -13.27777     0.01663    -0.01597
  augment  1149.17843  1149.10265  1133.05611     5.49736    -0.00445    -0.00531
  Kinetic  6009.77720  6009.55760  5824.13674    20.50520    -0.01948    -0.02109
  Fock        0.00000     0.00000     0.00000     0.00000     0.00000     0.00000
  vdW        -8.56186    -8.56176    -9.26493     0.90167    -0.00000     0.00000
  -------------------------------------------------------------------------------------
  Total      -1.38390    -1.36481    -6.74232    -0.08186     0.01423    -0.01673
  in kB      -2.55699    -2.52173   -12.45760    -0.15125     0.02630    -0.03090
  external pressure =       -5.85 kB  Pullay stress =        0.00 kB


 VOLUME and BASIS-vectors are now :
 -----------------------------------------------------------------------------
  energy-cutoff  :      500.00
  volume of cell :      867.13
      direct lattice vectors                 reciprocal lattice vectors
     0.000000000  0.000000000  6.199679030     0.000000000  0.000000000  0.161298673
     4.496384460 -4.496384460  0.000000000     0.111200455 -0.111200455  0.000000000
    15.553317250 15.553317250  0.000000000     0.032147483  0.032147483  0.000000000

  length of vectors
     6.199679030  6.358847885 21.995712195     0.161298673  0.157261192  0.045463406


 FORCES acting on ions
    electron-ion (+dipol)            ewald-force                    non-local-force                 convergence-correction
 -----------------------------------------------------------------------------------------------
   0.127E+04 0.127E+04 -.435E-03   -.128E+04 -.128E+04 0.195E-05   0.180E+02 0.180E+02 0.245E-02   -.581E-02 -.582E-02 -.306E-05
   0.127E+04 0.127E+04 -.435E-03   -.128E+04 -.128E+04 0.161E-05   0.180E+02 0.180E+02 0.245E-02   -.586E-02 -.587E-02 0.159E-05
   0.104E+04 0.103E+04 0.347E-03   -.104E+04 -.103E+04 -.286E-05   -.226E+01 0.133E+01 0.303E-02   0.642E-01 0.772E-01 -.215E-03
   0.104E+04 0.103E+04 -.529E-04   -.104E+04 -.103E+04 -.197E-04   -.226E+01 0.133E+01 0.301E-02   0.642E-01 0.771E-01 0.218E-03
   0.103E+04 0.104E+04 0.864E-04   -.103E+04 -.104E+04 0.741E-06   0.133E+01 -.226E+01 0.887E-03   0.772E-01 0.642E-01 -.215E-03
   0.103E+04 0.104E+04 -.305E-03   -.103E+04 -.104E+04 -.227E-04   0.133E+01 -.226E+01 0.874E-03   0.771E-01 0.642E-01 0.217E-03
   0.732E+03 0.732E+03 -.829E-03   -.732E+03 -.732E+03 0.333E-03   -.227E+00 -.229E+00 0.231E-02   0.148E+00 0.148E+00 0.540E-04
   0.732E+03 0.732E+03 -.728E-03   -.732E+03 -.732E+03 0.329E-03   -.227E+00 -.229E+00 0.234E-02   0.148E+00 0.148E+00 -.476E-04
   0.640E+03 0.640E+03 0.886E-03   -.639E+03 -.639E+03 0.138E-03   -.107E+01 -.108E+01 -.129E-02   0.144E+00 0.144E+00 0.330E-03
   0.640E+03 0.640E+03 0.143E-02   -.639E+03 -.639E+03 0.131E-03   -.107E+01 -.108E+01 -.124E-02   0.144E+00 0.144E+00 -.265E-03
   0.368E+03 0.316E+03 0.989E-02   -.370E+03 -.314E+03 -.992E-02   0.141E+01 -.149E+01 0.997E-03   0.142E+00 0.120E+00 -.324E-03
   0.368E+03 0.316E+03 0.941E-02   -.370E+03 -.314E+03 -.101E-01   0.141E+01 -.149E+01 0.100E-02   0.142E+00 0.120E+00 0.311E-03
   0.316E+03 0.368E+03 0.945E-02   -.314E+03 -.370E+03 -.923E-02   -.149E+01 0.141E+01 0.295E-02   0.120E+00 0.142E+00 -.323E-03
   0.316E+03 0.368E+03 0.960E-02   -.314E+03 -.370E+03 -.100E-01   -.149E+01 0.141E+01 0.295E-02   0.120E+00 0.142E+00 0.311E-03
   0.491E+02 0.491E+02 -.159E-02   -.469E+02 -.469E+02 0.428E-02   -.206E+01 -.205E+01 -.403E-02   0.133E+00 0.134E+00 -.308E-04
   0.491E+02 0.491E+02 -.180E-02   -.469E+02 -.469E+02 0.449E-02   -.206E+01 -.205E+01 -.414E-02   0.133E+00 0.134E+00 0.929E-05
   -.560E+02 -.560E+02 0.572E-02   0.544E+02 0.544E+02 -.915E-02   0.145E+01 0.147E+01 0.107E-01   0.813E-01 0.808E-01 -.170E-02
   -.560E+02 -.560E+02 0.376E-02   0.544E+02 0.544E+02 -.983E-02   0.145E+01 0.147E+01 0.107E-01   0.816E-01 0.811E-01 0.993E-03
   -.373E+03 -.325E+03 -.345E-01   0.374E+03 0.324E+03 0.435E-01   -.147E+01 0.128E+01 -.544E-02   -.103E-01 0.319E-01 0.217E-03
   -.373E+03 -.325E+03 -.377E-01   0.374E+03 0.324E+03 0.466E-01   -.147E+01 0.128E+01 -.581E-02   -.946E-02 0.310E-01 0.674E-03
   -.325E+03 -.373E+03 -.769E-01   0.324E+03 0.374E+03 0.929E-01   0.130E+01 -.152E+01 -.116E-01   0.321E-01 -.100E-01 0.545E-04
   -.325E+03 -.373E+03 -.751E-01   0.324E+03 0.374E+03 0.900E-01   0.130E+01 -.152E+01 -.112E-01   0.312E-01 -.925E-02 0.521E-03
   -.634E+03 -.634E+03 0.183E-01   0.633E+03 0.632E+03 -.253E-01   0.125E+01 0.158E+01 0.162E-01   -.101E-01 -.963E-02 -.189E-02
   -.634E+03 -.634E+03 0.150E-01   0.633E+03 0.632E+03 -.244E-01   0.125E+01 0.158E+01 0.160E-01   -.993E-02 -.941E-02 0.787E-03
   -.732E+03 -.732E+03 -.176E-01   0.733E+03 0.732E+03 0.306E-01   0.247E-01 0.102E+00 -.147E-01   -.146E+00 -.146E+00 0.446E-03
   -.732E+03 -.732E+03 -.169E-01   0.733E+03 0.732E+03 0.304E-01   0.240E-01 0.101E+00 -.146E-01   -.146E+00 -.146E+00 -.324E-03
   -.105E+04 -.105E+04 0.293E-01   0.105E+04 0.106E+04 -.371E-01   -.203E+01 -.568E+01 0.964E-02   0.535E-02 -.182E+00 -.660E-03
   -.105E+04 -.105E+04 0.240E-01   0.105E+04 0.106E+04 -.321E-01   -.203E+01 -.568E+01 0.940E-02   0.571E-02 -.183E+00 0.183E-03
   -.105E+04 -.105E+04 -.496E-02   0.106E+04 0.105E+04 0.472E-02   -.566E+01 -.207E+01 0.747E-02   -.183E+00 0.510E-02 -.147E-02
   -.105E+04 -.105E+04 -.886E-02   0.106E+04 0.105E+04 0.804E-02   -.566E+01 -.207E+01 0.739E-02   -.184E+00 0.544E-02 -.672E-03
   -.126E+04 -.126E+04 0.133E-01   0.128E+04 0.128E+04 -.118E-01   -.183E+02 -.182E+02 0.763E-03   -.485E-01 -.488E-01 0.179E-03
   -.126E+04 -.126E+04 0.131E-01   0.128E+04 0.128E+04 -.998E-02   -.183E+02 -.182E+02 0.578E-03   -.485E-01 -.487E-01 -.125E-02
   0.162E+04 0.162E+04 0.332E-03   -.162E+04 -.162E+04 0.850E-05   -.395E+01 -.395E+01 0.565E-02   0.998E-01 0.998E-01 0.816E-04
   0.162E+04 0.162E+04 0.503E-03   -.162E+04 -.162E+04 0.669E-05   -.395E+01 -.395E+01 0.565E-02   0.997E-01 0.997E-01 -.875E-04
   0.151E+04 0.151E+04 0.976E-03   -.151E+04 -.151E+04 -.209E-04   0.824E+00 0.842E+00 0.408E-02   0.124E+00 0.124E+00 -.391E-03
   0.151E+04 0.151E+04 0.254E-03   -.151E+04 -.151E+04 -.505E-04   0.824E+00 0.842E+00 0.411E-02   0.124E+00 0.124E+00 0.381E-03
   0.514E+03 0.514E+03 0.286E-02   -.514E+03 -.514E+03 -.292E-03   -.458E+00 -.440E+00 0.368E-02   0.210E+00 0.210E+00 -.384E-03
   0.514E+03 0.514E+03 0.279E-02   -.514E+03 -.514E+03 -.115E-02   -.458E+00 -.440E+00 0.371E-02   0.210E+00 0.210E+00 0.445E-03
   0.513E+03 0.513E+03 -.413E-01   -.514E+03 -.514E+03 0.395E-01   0.103E-01 0.104E-01 0.482E-02   0.190E+00 0.190E+00 -.764E-05
   0.513E+03 0.513E+03 -.413E-01   -.514E+03 -.514E+03 0.395E-01   0.103E-01 0.105E-01 0.479E-02   0.190E+00 0.190E+00 -.492E-04
   -.523E+03 -.523E+03 0.164E+00   0.523E+03 0.523E+03 -.157E+00   -.247E+00 -.253E+00 -.162E-02   0.119E-01 0.133E-01 0.773E-03
   -.523E+03 -.523E+03 0.158E+00   0.523E+03 0.523E+03 -.153E+00   -.248E+00 -.254E+00 -.132E-02   0.121E-01 0.134E-01 0.252E-02
   -.515E+03 -.515E+03 0.302E-01   0.514E+03 0.515E+03 -.312E-01   0.344E+00 0.347E+00 0.399E-02   0.513E-01 0.496E-01 0.125E-03
   -.515E+03 -.515E+03 0.275E-01   0.514E+03 0.515E+03 -.283E-01   0.344E+00 0.347E+00 0.404E-02   0.513E-01 0.496E-01 -.155E-03
   -.150E+04 -.150E+04 -.235E-01   0.150E+04 0.150E+04 0.276E-01   -.128E+01 -.128E+01 -.169E-02   -.163E+00 -.163E+00 -.508E-02
   -.150E+04 -.150E+04 -.303E-01   0.150E+04 0.150E+04 0.292E-01   -.128E+01 -.128E+01 -.158E-02   -.163E+00 -.163E+00 0.389E-03
   -.157E+04 -.157E+04 -.439E-01   0.157E+04 0.157E+04 0.401E-01   0.384E+01 0.385E+01 0.951E-02   -.112E+00 -.113E+00 -.639E-03
   -.157E+04 -.157E+04 -.418E-01   0.157E+04 0.157E+04 0.384E-01   0.384E+01 0.385E+01 0.943E-02   -.113E+00 -.113E+00 -.918E-03
 -----------------------------------------------------------------------------------------------
   0.195E+02 0.188E+02 0.499E-01   -.387E-11 -.455E-12 -.637E-13   -.214E+02 -.207E+02 0.972E-01   0.191E+01 0.191E+01 -.688E-02
 
 
 POSITION                                       TOTAL-FORCE (eV/Angst)
 -----------------------------------------------------------------------------------
      2.56158     -2.56158      0.81099         0.301361      0.294138     -0.000911
      2.56158     -2.56158      3.91083         0.301369      0.294145     -0.000909
      2.05106     -0.31339      2.36091        -0.617089     -0.336573      0.000233
      2.05106     -0.31339      5.46075        -0.617094     -0.336575      0.000237
      4.80977     -3.07210      2.36091        -0.333881     -0.619616     -0.002164
      4.80977     -3.07210      5.46075        -0.333882     -0.619621     -0.002159
      4.29925     -0.82391      0.81099         0.133871      0.131332     -0.001049
      4.29925     -0.82391      3.91083         0.133871      0.131326     -0.001034
      2.56158      1.93480      0.81099        -0.153565     -0.157420     -0.002856
      2.56158      1.93480      3.91083        -0.153564     -0.157419     -0.002865
      4.80977      1.42428      2.36091        -0.021841     -0.055576     -0.002280
      4.80977      1.42428      5.46075        -0.021820     -0.055587     -0.002261
      6.54745     -0.31339      2.36091        -0.052392     -0.024413     -0.000071
      6.54745     -0.31339      5.46075        -0.052396     -0.024390     -0.000061
      4.29925      3.67248      0.81099         0.285605      0.278991     -0.004296
      4.29925      3.67248      3.91083         0.285665      0.279048     -0.004363
      7.05063      1.92763      0.81015        -0.019825     -0.019558      0.002645
      7.05063      1.92763      3.90999        -0.019869     -0.019675      0.002746
      6.55439      4.19179      2.36041         0.030869      0.030489      0.000851
      6.55438      4.19178      5.46026         0.030906      0.030543      0.000855
      9.31487      1.43166      2.36016         0.028806      0.028477      0.001503
      9.31487      1.43166      5.46001         0.028743      0.028506      0.001340
      8.78369      3.65619      0.81012         0.028330      0.022338      0.004394
      8.78368      3.65618      3.90996         0.028406      0.022407      0.004421
      7.07774      6.44976      0.81172         0.001909      0.005373     -0.004196
      7.07772      6.44975      3.91156         0.002237      0.005679     -0.004349
      9.39572      5.98275      2.36127        -0.004055     -0.006799     -0.001701
      9.39572      5.98274      5.46109        -0.004150     -0.006659     -0.001472
     11.10533      4.27348      2.36103        -0.004205     -0.004663      0.002832
     11.10532      4.27348      5.46086        -0.004071     -0.004762      0.002977
      8.81211      8.18526      0.81180        -0.010972     -0.012662     -0.000492
      8.81211      8.18526      3.91164        -0.011070     -0.012740     -0.000518
      1.18223      0.55545      0.81099         1.156852      1.159042      0.003150
      1.18223      0.55545      3.91083         1.156840      1.159029      0.003152
      3.43042     -1.69275      2.36091        -0.436047     -0.417463      0.001723
      3.43042     -1.69275      5.46075        -0.436042     -0.417458      0.001767
      3.43042      2.80364      2.36091        -0.163080     -0.143883      0.002943
      3.43042      2.80364      5.46075        -0.163075     -0.143887      0.002887
      5.67861      0.55545      0.81099        -0.183319     -0.183868      0.000069
      5.67861      0.55545      3.91083        -0.183294     -0.183824      0.000017
      5.69156      5.06519      0.81058         0.009607      0.010166      0.002519
      5.69158      5.06520      3.91041         0.009141      0.009952      0.002922
      7.91619      2.79405      2.36010        -0.001900     -0.004920      0.000145
      7.91620      2.79405      5.45995        -0.001897     -0.004864      0.000150
      7.96417      7.33883      2.36174        -0.007263     -0.007627     -0.005628
      7.96416      7.33883      5.46157        -0.007174     -0.007643     -0.005203
     10.13004      5.00811      0.81127         0.032196      0.034577      0.002148
     10.13003      5.00810      3.91111         0.032251      0.034585      0.002214
 -----------------------------------------------------------------------------------
    total drift:                               -0.034576      0.057977      0.140299
  FORCES: max atom, RMS     0.047341    0.019028
  Number: max atom                48
  FORCE total and by dimension    0.131833    0.034585


--------------------------------------------------------------------------------------------------------



  FREE ENERGIE OF THE ION-ELECTRON SYSTEM (eV)
  ---------------------------------------------------
  free  energy   TOTEN  =      -317.18659827 eV

  energy  without entropy=     -317.13728508  energy(sigma->0) =     -317.16194167
 
 d Force = 0.6837077E-03[ 0.501E-03, 0.867E-03]  d Energy = 0.6224734E-03 0.612E-04
 d Force = 0.3025269E+02[ 0.302E+02, 0.303E+02]  d Ewald  = 0.3025269E+02-0.140E-05


--------------------------------------------------------------------------------------------------------


    POTLOK:  cpu time    0.3639: real time    0.3775


--------------------------------------------------------------------------------------------------------


 Conjugate gradient step on ions:
 trial-energy change:   -0.000622  1 .order   -0.000684   -0.000867   -0.000501
  (g-gl).g = 0.283E-03      g.g   = 0.367E-03  gl.gl    = 0.114E-02
 g(Force)  = 0.367E-03   g(Stress)= 0.000E+00 ortho     =-0.671E-05
 gamma     =   0.24850
 trial     =   2.37013
 opt step  =   5.60761  (harmonic =   5.60761) maximal distance =0.00318861
 next E    =  -317.187001   (d E  =  -0.00103)


--------------------------------------------------------------------------------------------------------


  
 reached required accuracy - stopping structural energy minimisation
     LOOP+:  cpu time  266.1695: real time  266.3105
    4ORBIT:  cpu time    0.0000: real time    0.0000

 total amount of memory used by VASP on root node   129087. kBytes
========================================================================

   base      :      30000. kBytes
   nonlr-proj:       8756. kBytes
   fftplans  :       5964. kBytes
   grid      :      14807. kBytes
   one-center:        248. kBytes
   wavefun   :      69312. kBytes
 
  
  
 General timing and accounting informations for this job:
 ========================================================
  
                  Total CPU time used (sec):     7462.939
                            User time (sec):     7457.777
                          System time (sec):        5.162
                         Elapsed time (sec):     7533.512
  
                   Maximum memory used (kb):           0.
                   Average memory used (kb):           0.
  
                          Minor page faults:       283938
                          Major page faults:            0
                 Voluntary context switches:        10611
