<?xml version="1.0" encoding="ISO-8859-1"?>
<modeling>
 <generator>
  <i name="program" type="string">vasp </i>
  <i name="version" type="string">5.4.1  </i>
  <i name="subversion" type="string">08Jul2015 (build Apr 24 2014 00:09:29) complex standard with constrain (TS)     parallel </i>
  <i name="platform" type="string">IBM of Center for Computational Chemistry </i>
  <i name="date" type="string">2017 12 16 </i>
  <i name="time" type="string">16:21:31 </i>
 </generator>
 <incar>
  <i type="string" name="SYSTEM"> RhO2_suf110_2x1x4_2fix</i>
  <i type="int" name="ISTART">     0</i>
  <i type="string" name="PREC">accurate       ! [low/medium/high/norma</i>
  <i type="string" name="ALGO">Fast</i>
  <i type="int" name="ISPIN">     2</i>
  <i type="int" name="NELM">   300</i>
  <i type="int" name="NELMIN">     3</i>
  <i type="int" name="IBRION">     2</i>
  <i name="EDIFFG">     -0.05000000</i>
  <i type="int" name="NSW">  1000</i>
  <i type="int" name="ISIF">     2</i>
  <i type="int" name="ISYM">     0</i>
  <i name="ENCUT">    500.00000000</i>
  <i name="POTIM">      0.10000000</i>
  <i type="string" name="LREAL"> A    ! aproximace, T zpomaluje, ale pre</i>
  <i type="int" name="ISMEAR">     0</i>
  <i name="SIGMA">      0.05000000</i>
  <i type="int" name="NWRITE">     2</i>
  <i type="logical" name="LWAVE"> F  </i>
  <i type="logical" name="LCHARG"> F  </i>
  <v type="int" name="KPOINT_BSE">    -1     0     0     0</v>
  <i type="int" name="NELM">   300</i>
 </incar>
 <kpoints>
  <generation param="Gamma">
   <v type="int" name="divisions">       4        4        1 </v>
   <v name="usershift">      0.00000000       0.00000000       0.00000000 </v>
   <v name="genvec1">      0.25000000       0.00000000       0.00000000 </v>
   <v name="genvec2">      0.00000000       0.25000000       0.00000000 </v>
   <v name="genvec3">      0.00000000       0.00000000       1.00000000 </v>
   <v name="shift">      0.00000000       0.00000000       0.00000000 </v>
  </generation>
  <varray name="kpointlist" >
   <v>       0.00000000       0.00000000       0.00000000 </v>
   <v>       0.25000000       0.00000000       0.00000000 </v>
   <v>       0.50000000       0.00000000       0.00000000 </v>
   <v>       0.00000000       0.25000000       0.00000000 </v>
   <v>       0.25000000       0.25000000       0.00000000 </v>
   <v>       0.50000000       0.25000000       0.00000000 </v>
   <v>      -0.25000000       0.25000000       0.00000000 </v>
   <v>       0.00000000       0.50000000       0.00000000 </v>
   <v>       0.25000000       0.50000000       0.00000000 </v>
   <v>       0.50000000       0.50000000       0.00000000 </v>
  </varray>
  <varray name="weights" >
   <v>       0.06250000 </v>
   <v>       0.12500000 </v>
   <v>       0.06250000 </v>
   <v>       0.12500000 </v>
   <v>       0.12500000 </v>
   <v>       0.12500000 </v>
   <v>       0.12500000 </v>
   <v>       0.06250000 </v>
   <v>       0.12500000 </v>
   <v>       0.06250000 </v>
  </varray>
 </kpoints>
 <parameters>
  <separator name="general" >
   <i type="string" name="SYSTEM">RhO2_suf110_2x1x4_2fix</i>
   <i type="logical" name="LCOMPAT"> F  </i>
  </separator>
  <separator name="electronic" >
   <i type="string" name="PREC">accura</i>
   <i name="ENMAX">    500.00000000</i>
   <i name="ENAUG">    605.39200000</i>
   <i name="EDIFF">      0.00010000</i>
   <i type="int" name="IALGO">    68</i>
   <i type="int" name="IWAVPR">    11</i>
   <i type="int" name="NBANDS">   228</i>
   <i name="NELECT">    336.00000000</i>
   <i type="int" name="TURBO">     0</i>
   <i type="int" name="IRESTART">     0</i>
   <i type="int" name="NREBOOT">     0</i>
   <i type="int" name="NMIN">     0</i>
   <i name="EREF">      0.00000000</i>
   <separator name="electronic smearing" >
    <i type="int" name="ISMEAR">     0</i>
    <i name="SIGMA">      0.05000000</i>
    <i name="KSPACING">      0.50000000</i>
    <i type="logical" name="KGAMMA"> T  </i>
   </separator>
   <separator name="electronic projectors" >
    <i type="logical" name="LREAL"> T  </i>
    <v name="ROPT">     -0.00025000     -0.00025000</v>
    <i type="int" name="LMAXPAW">  -100</i>
    <i type="int" name="LMAXMIX">     2</i>
    <i type="logical" name="NLSPLINE"> F  </i>
   </separator>
   <separator name="electronic startup" >
    <i type="int" name="ISTART">     0</i>
    <i type="int" name="ICHARG">     2</i>
    <i type="int" name="INIWAV">     1</i>
   </separator>
   <separator name="electronic spin" >
    <i type="int" name="ISPIN">     2</i>
    <i type="logical" name="LNONCOLLINEAR"> F  </i>
    <v name="MAGMOM">      1.00000000      1.00000000      1.00000000      1.00000000      1.00000000      1.00000000      1.00000000      1.00000000      1.00000000      1.00000000      1.00000000      1.00000000      1.00000000      1.00000000      1.00000000      1.00000000      1.00000000      1.00000000      1.00000000      1.00000000
      1.00000000      1.00000000      1.00000000      1.00000000      1.00000000      1.00000000      1.00000000      1.00000000      1.00000000      1.00000000      1.00000000      1.00000000      1.00000000      1.00000000      1.00000000      1.00000000      1.00000000      1.00000000      1.00000000      1.00000000
      1.00000000      1.00000000      1.00000000      1.00000000      1.00000000      1.00000000      1.00000000      1.00000000</v>
    <i name="NUPDOWN">     -1.00000000</i>
    <i type="logical" name="LSORBIT"> F  </i>
    <v name="SAXIS">      0.00000000      0.00000000      1.00000000</v>
    <i type="logical" name="LSPIRAL"> F  </i>
    <v name="QSPIRAL">      0.00000000      0.00000000      0.00000000</v>
    <i type="logical" name="LZEROZ"> F  </i>
   </separator>
   <separator name="electronic exchange-correlation" >
    <i type="logical" name="LASPH"> F  </i>
    <i type="logical" name="LMETAGGA"> F  </i>
   </separator>
   <separator name="electronic convergence" >
    <i type="int" name="NELM">   300</i>
    <i type="int" name="NELMDL">    -5</i>
    <i type="int" name="NELMIN">     3</i>
    <i name="ENINI">    500.00000000</i>
    <separator name="electronic convergence detail" >
     <i type="logical" name="LDIAG"> T  </i>
     <i type="logical" name="LSUBROT"> F  </i>
     <i name="WEIMIN">      0.00100000</i>
     <i name="EBREAK">      0.00000011</i>
     <i name="DEPER">      0.30000000</i>
     <i type="int" name="NRMM">     4</i>
     <i name="TIME">      0.40000000</i>
    </separator>
   </separator>
   <separator name="electronic mixer" >
    <i name="AMIX">      0.40000000</i>
    <i name="BMIX">      1.00000000</i>
    <i name="AMIN">      0.10000000</i>
    <i name="AMIX_MAG">      1.60000000</i>
    <i name="BMIX_MAG">      1.00000000</i>
    <separator name="electronic mixer details" >
     <i type="int" name="IMIX">     4</i>
     <i type="logical" name="MIXFIRST"> F  </i>
     <i type="int" name="MAXMIX">   -45</i>
     <i name="WC">    100.00000000</i>
     <i type="int" name="INIMIX">     1</i>
     <i type="int" name="MIXPRE">     1</i>
     <i type="int" name="MREMOVE">     5</i>
    </separator>
   </separator>
   <separator name="electronic dipolcorrection" >
    <i type="logical" name="LDIPOL"> F  </i>
    <i type="logical" name="LMONO"> F  </i>
    <i type="int" name="IDIPOL">     0</i>
    <i name="EPSILON">      1.00000000</i>
    <v name="DIPOL">   -100.00000000   -100.00000000   -100.00000000</v>
    <i name="EFIELD">      0.00000000</i>
   </separator>
  </separator>
  <separator name="grids" >
   <i type="int" name="NGX">    48</i>
   <i type="int" name="NGY">    48</i>
   <i type="int" name="NGZ">   160</i>
   <i type="int" name="NGXF">    96</i>
   <i type="int" name="NGYF">    96</i>
   <i type="int" name="NGZF">   320</i>
   <i type="logical" name="ADDGRID"> F  </i>
  </separator>
  <separator name="ionic" >
   <i type="int" name="NSW">  1000</i>
   <i type="int" name="IBRION">     2</i>
   <i type="int" name="ISIF">     2</i>
   <i name="PSTRESS">      0.00000000</i>
   <i name="EDIFFG">     -0.05000000</i>
   <i type="int" name="NFREE">     1</i>
   <i name="POTIM">      0.10000000</i>
   <i name="SMASS">     -3.00000000</i>
   <i name="SCALEE">      1.00000000</i>
  </separator>
  <separator name="ionic md" >
   <i name="TEBEG">      0.00010000</i>
   <i name="TEEND">      0.00010000</i>
   <i type="int" name="NBLOCK">     1</i>
   <i type="int" name="KBLOCK">  1000</i>
   <i type="int" name="NPACO">   256</i>
   <i name="APACO">     16.00000000</i>
  </separator>
  <separator name="symmetry" >
   <i type="int" name="ISYM">     0</i>
   <i name="SYMPREC">      0.00001000</i>
  </separator>
  <separator name="dos" >
   <i type="logical" name="LORBIT"> F  </i>
   <v name="RWIGS">     -1.00000000     -1.00000000</v>
   <i type="int" name="NEDOS">   301</i>
   <i name="EMIN">     10.00000000</i>
   <i name="EMAX">    -10.00000000</i>
   <i name="EFERMI">      0.00000000</i>
  </separator>
  <separator name="writing" >
   <i type="int" name="NWRITE">     2</i>
   <i type="logical" name="LWAVE"> F  </i>
   <i type="logical" name="LCHARG"> F  </i>
   <i type="logical" name="LPARD"> F  </i>
   <i type="logical" name="LVTOT"> F  </i>
   <i type="logical" name="LVHAR"> F  </i>
   <i type="logical" name="LELF"> F  </i>
   <i type="logical" name="LOPTICS"> F  </i>
   <v name="STM">      0.00000000      0.00000000      0.00000000      0.00000000      0.00000000      0.00000000      0.00000000</v>
  </separator>
  <separator name="performance" >
   <i type="int" name="NPAR">     4</i>
   <i type="int" name="NSIM">     4</i>
   <i type="int" name="NBLK">    -1</i>
   <i type="logical" name="LPLANE"> T  </i>
   <i type="logical" name="LSCALAPACK"> T  </i>
   <i type="logical" name="LSCAAWARE"> F  </i>
   <i type="logical" name="LSCALU"> F  </i>
   <i type="logical" name="LASYNC"> F  </i>
   <i type="logical" name="LORBITALREAL"> F  </i>
  </separator>
  <separator name="miscellaneous" >
   <i type="int" name="IDIOT">     3</i>
   <i type="logical" name="LMUSIC"> F  </i>
   <v name="POMASS">     16.00000000    102.90600000</v>
   <v name="DARWINR">      0.00000000      0.00000000</v>
   <v name="DARWINV">      1.00000000      1.00000000</v>
   <i type="logical" name="LCORR"> T  </i>
  </separator>
  <i type="logical" name="GGA_COMPAT"> T  </i>
  <i type="logical" name="LBERRY"> F  </i>
  <i type="int" name="ICORELEVEL">     0</i>
  <i type="logical" name="LDAU"> F  </i>
  <i type="int" name="I_CONSTRAINED_M">     0</i>
  <separator name="electronic exchange-correlation" >
   <i type="string" name="GGA">--</i>
   <i type="int" name="VOSKOWN">     0</i>
   <i type="logical" name="LHFCALC"> F  </i>
   <i type="string" name="PRECFOCK"></i>
   <i type="logical" name="LSYMGRAD"> F  </i>
   <i type="logical" name="LHFONE"> F  </i>
   <i type="logical" name="LRHFCALC"> F  </i>
   <i type="logical" name="LTHOMAS"> F  </i>
   <i type="logical" name="LMODELHF"> F  </i>
   <i name="ENCUT4O">     -1.00000000</i>
   <i type="int" name="EXXOEP">     0</i>
   <i type="int" name="FOURORBIT">     0</i>
   <i name="AEXX">      0.00000000</i>
   <i name="HFALPHA">      0.00000000</i>
   <i name="MCALPHA">      0.00000000</i>
   <i name="ALDAX">      1.00000000</i>
   <i name="AGGAX">      1.00000000</i>
   <i name="ALDAC">      1.00000000</i>
   <i name="AGGAC">      1.00000000</i>
   <i type="int" name="NKREDX">     1</i>
   <i type="int" name="NKREDY">     1</i>
   <i type="int" name="NKREDZ">     1</i>
   <i type="logical" name="SHIFTRED"> F  </i>
   <i type="logical" name="ODDONLY"> F  </i>
   <i type="logical" name="EVENONLY"> F  </i>
   <i type="int" name="LMAXFOCK">     0</i>
   <i type="int" name="NMAXFOCKAE">     0</i>
   <i type="logical" name="LFOCKAEDFT"> F  </i>
   <i name="HFSCREEN">      0.00000000</i>
   <i name="HFSCREENC">      0.00000000</i>
   <i type="int" name="NBANDSGWLOW">     0</i>
  </separator>
  <separator name="vdW DFT" >
   <i type="logical" name="LUSE_VDW"> F  </i>
   <i name="Zab_VDW">     -0.84910000</i>
   <i name="PARAM1">      0.12340000</i>
   <i name="PARAM2">      1.00000000</i>
   <i name="PARAM3">      0.00000000</i>
  </separator>
  <separator name="model GW" >
   <i type="int" name="MODEL_GW">     0</i>
   <i name="MODEL_EPS0">     10.83916140</i>
   <i name="MODEL_ALPHA">      1.00000000</i>
  </separator>
  <separator name="linear response parameters" >
   <i type="logical" name="LEPSILON"> F  </i>
   <i type="logical" name="LRPA"> F  </i>
   <i type="logical" name="LNABLA"> F  </i>
   <i type="logical" name="LVEL"> F  </i>
   <i type="int" name="KINTER">     0</i>
   <i name="CSHIFT">      0.10000000</i>
   <i name="OMEGAMAX">     -1.00000000</i>
   <i name="DEG_THRESHOLD">      0.00200000</i>
  </separator>
  <separator name="orbital magnetization" >
   <i type="logical" name="NUCIND"> F  </i>
   <v name="MAGPOS">      0.00000000      0.00000000      0.00000000</v>
   <i type="logical" name="LNICSALL"> T  </i>
   <i type="logical" name="ORBITALMAG"> F  </i>
   <i type="logical" name="LMAGBLOCH"> F  </i>
   <i type="logical" name="LCHIMAG"> F  </i>
   <i type="logical" name="LGAUGE"> T  </i>
   <i type="int" name="MAGATOM">     0</i>
   <v name="MAGDIPOL">      0.00000000      0.00000000      0.00000000</v>
   <v name="AVECCONST">      0.00000000      0.00000000      0.00000000</v>
  </separator>
  <separator name="response functions" >
   <i type="logical" name="LADDER"> F  </i>
   <i type="logical" name="LFXC"> F  </i>
   <i type="logical" name="LHARTREE"> T  </i>
   <i type="int" name="IBSE">     0</i>
   <v type="int" name="KPOINT">    -1     0     0     0</v>
   <i type="logical" name="LTCTE"> F  </i>
   <i type="logical" name="LTETE"> F  </i>
   <i type="logical" name="LTRIPLET"> F  </i>
   <i type="logical" name="LFXCEPS"> F  </i>
   <i type="logical" name="LFXHEG"> F  </i>
   <i type="int" name="NATURALO">     0</i>
   <i type="logical" name="L2ORDER"> F  </i>
   <i type="logical" name="LUSEW"> F  </i>
   <i name="ENCUTGW">     -2.00000000</i>
   <i name="ENCUTGWSOFT">     -2.00000000</i>
   <i name="ENCUTLF">     -1.00000000</i>
   <i type="int" name="LMAXMP2">    -1</i>
   <i name="SCISSOR">      0.00000000</i>
   <i type="int" name="NOMEGA">     0</i>
   <i type="int" name="NOMEGAR">     0</i>
   <i type="int" name="NBANDSGW">    -1</i>
   <i type="int" name="NBANDSO">    -1</i>
   <i type="int" name="NBANDSV">    -1</i>
   <i type="int" name="NELM">   300</i>
   <i type="int" name="NELMHF">     1</i>
   <i type="int" name="DIM">     3</i>
   <i type="int" name="ANTIRES">     0</i>
   <i name="OMEGAMAX">    -30.00000000</i>
   <i name="OMEGAMIN">    -30.00000000</i>
   <i name="OMEGATL">   -200.00000000</i>
   <i type="int" name="OMEGAGRID">     0</i>
   <i name="CSHIFT">     -0.10000000</i>
   <i type="logical" name="SELFENERGY"> F  </i>
   <i type="logical" name="LSPECTRAL"> F  </i>
   <i type="logical" name="LSPECTRALGW"> F  </i>
   <i type="logical" name="LSINGLES"> F  </i>
   <i type="logical" name="LFERMIGW"> F  </i>
   <i type="logical" name="ODDONLYGW"> F  </i>
   <i type="logical" name="EVENONLYGW"> F  </i>
   <i type="int" name="NKREDLFX">     1</i>
   <i type="int" name="NKREDLFY">     1</i>
   <i type="int" name="NKREDLFZ">     1</i>
   <i type="int" name="MAXMEM">  1800</i>
   <i type="int" name="TELESCOPE">     0</i>
   <i type="int" name="TAUPAR">     1</i>
   <i type="int" name="OMEGAPAR">    -1</i>
   <i name="LAMBDA">      1.00000000</i>
  </separator>
  <separator name="External order field" >
   <i name="OFIELD_KAPPA">      0.00000000</i>
   <v name="OFIELD_K">      0.00000000      0.00000000      0.00000000</v>
   <i name="OFIELD_Q6_NEAR">      0.00000000</i>
   <i name="OFIELD_Q6_FAR">      0.00000000</i>
   <i name="OFIELD_A">      0.00000000</i>
  </separator>
 </parameters>
 <atominfo>
  <atoms>      48 </atoms>
  <types>       2 </types>
  <array name="atoms" >
   <dimension dim="1">ion</dimension>
   <field type="string">element</field>
   <field type="int">atomtype</field>
   <set>
    <rc><c>O </c><c>   1</c></rc>
    <rc><c>O </c><c>   1</c></rc>
    <rc><c>O </c><c>   1</c></rc>
    <rc><c>O </c><c>   1</c></rc>
    <rc><c>O </c><c>   1</c></rc>
    <rc><c>O </c><c>   1</c></rc>
    <rc><c>O </c><c>   1</c></rc>
    <rc><c>O </c><c>   1</c></rc>
    <rc><c>O </c><c>   1</c></rc>
    <rc><c>O </c><c>   1</c></rc>
    <rc><c>O </c><c>   1</c></rc>
    <rc><c>O </c><c>   1</c></rc>
    <rc><c>O </c><c>   1</c></rc>
    <rc><c>O </c><c>   1</c></rc>
    <rc><c>O </c><c>   1</c></rc>
    <rc><c>O </c><c>   1</c></rc>
    <rc><c>O </c><c>   1</c></rc>
    <rc><c>O </c><c>   1</c></rc>
    <rc><c>O </c><c>   1</c></rc>
    <rc><c>O </c><c>   1</c></rc>
    <rc><c>O </c><c>   1</c></rc>
    <rc><c>O </c><c>   1</c></rc>
    <rc><c>O </c><c>   1</c></rc>
    <rc><c>O </c><c>   1</c></rc>
    <rc><c>O </c><c>   1</c></rc>
    <rc><c>O </c><c>   1</c></rc>
    <rc><c>O </c><c>   1</c></rc>
    <rc><c>O </c><c>   1</c></rc>
    <rc><c>O </c><c>   1</c></rc>
    <rc><c>O </c><c>   1</c></rc>
    <rc><c>O </c><c>   1</c></rc>
    <rc><c>O </c><c>   1</c></rc>
    <rc><c>Rh</c><c>   2</c></rc>
    <rc><c>Rh</c><c>   2</c></rc>
    <rc><c>Rh</c><c>   2</c></rc>
    <rc><c>Rh</c><c>   2</c></rc>
    <rc><c>Rh</c><c>   2</c></rc>
    <rc><c>Rh</c><c>   2</c></rc>
    <rc><c>Rh</c><c>   2</c></rc>
    <rc><c>Rh</c><c>   2</c></rc>
    <rc><c>Rh</c><c>   2</c></rc>
    <rc><c>Rh</c><c>   2</c></rc>
    <rc><c>Rh</c><c>   2</c></rc>
    <rc><c>Rh</c><c>   2</c></rc>
    <rc><c>Rh</c><c>   2</c></rc>
    <rc><c>Rh</c><c>   2</c></rc>
    <rc><c>Rh</c><c>   2</c></rc>
    <rc><c>Rh</c><c>   2</c></rc>
   </set>
  </array>
  <array name="atomtypes" >
   <dimension dim="1">type</dimension>
   <field type="int">atomspertype</field>
   <field type="string">element</field>
   <field>mass</field>
   <field>valence</field>
   <field type="string">pseudopotential</field>
   <set>
    <rc><c>  32</c><c>O </c><c>     16.00000000</c><c>      6.00000000</c><c>  PAW_PBE O 08Apr2002                   </c></rc>
    <rc><c>  16</c><c>Rh</c><c>    102.90600000</c><c>      9.00000000</c><c>  PAW_PBE Rh 04Feb2005                  </c></rc>
   </set>
  </array>
 </atominfo>
 <structure name="initialpos" >
  <crystal>
   <varray name="basis" >
    <v>       0.00000000       0.00000000       6.19967903 </v>
    <v>       4.49638446      -4.49638446       0.00000000 </v>
    <v>      15.55331725      15.55331725       0.00000000 </v>
   </varray>
   <i name="volume">    867.13291217 </i>
   <varray name="rec_basis" >
    <v>       0.00000000       0.00000000       0.16129867 </v>
    <v>       0.11120046      -0.11120046       0.00000000 </v>
    <v>       0.03214748       0.03214748       0.00000000 </v>
   </varray>
  </crystal>
  <varray name="positions" >
   <v>       0.13081166       0.56969810       0.00000000 </v>
   <v>       0.63081166       0.56969810       0.00000000 </v>
   <v>       0.38081166       0.26292810       0.05586180 </v>
   <v>       0.88081166       0.26292810       0.05586180 </v>
   <v>       0.38081166       0.87646810       0.05586180 </v>
   <v>       0.88081166       0.87646810       0.05586180 </v>
   <v>       0.13081166       0.56969810       0.11172361 </v>
   <v>       0.63081166       0.56969810       0.11172361 </v>
   <v>       0.13081166       0.06969810       0.14454744 </v>
   <v>       0.63081166       0.06969810       0.14454744 </v>
   <v>       0.38081166       0.37646810       0.20040925 </v>
   <v>       0.88081166       0.37646810       0.20040925 </v>
   <v>       0.38081166       0.76292810       0.20040925 </v>
   <v>       0.88081166       0.76292810       0.20040925 </v>
   <v>       0.13081166       0.06969810       0.25627105 </v>
   <v>       0.63081166       0.06969810       0.25627105 </v>
   <v>       0.13081166       0.56969810       0.28909489 </v>
   <v>       0.63081166       0.56969810       0.28909489 </v>
   <v>       0.38081166       0.26292810       0.34495669 </v>
   <v>       0.88081166       0.26292810       0.34495669 </v>
   <v>       0.38081166       0.87646810       0.34495669 </v>
   <v>       0.88081166       0.87646810       0.34495669 </v>
   <v>       0.13081166       0.56969810       0.40081849 </v>
   <v>       0.63081166       0.56969810       0.40081849 </v>
   <v>       0.13081166       0.06969810       0.43364233 </v>
   <v>       0.63081166       0.06969810       0.43364233 </v>
   <v>       0.38081166       0.37646810       0.48950413 </v>
   <v>       0.88081166       0.37646810       0.48950413 </v>
   <v>       0.38081166       0.76292810       0.48950413 </v>
   <v>       0.88081166       0.76292810       0.48950413 </v>
   <v>       0.13081166       0.06969810       0.54536594 </v>
   <v>       0.63081166       0.06969810       0.54536594 </v>
   <v>       0.13081166       0.06969810       0.05586180 </v>
   <v>       0.63081166       0.06969810       0.05586180 </v>
   <v>       0.38081166       0.56969810       0.05586180 </v>
   <v>       0.88081166       0.56969810       0.05586180 </v>
   <v>       0.38081166       0.06969810       0.20040925 </v>
   <v>       0.88081166       0.06969810       0.20040925 </v>
   <v>       0.13081166       0.56969810       0.20040925 </v>
   <v>       0.63081166       0.56969810       0.20040925 </v>
   <v>       0.13081166       0.06969810       0.34495669 </v>
   <v>       0.63081166       0.06969810       0.34495669 </v>
   <v>       0.38081166       0.56969810       0.34495669 </v>
   <v>       0.88081166       0.56969810       0.34495669 </v>
   <v>       0.38081166       0.06969810       0.48950413 </v>
   <v>       0.88081166       0.06969810       0.48950413 </v>
   <v>       0.13081166       0.56969810       0.48950413 </v>
   <v>       0.63081166       0.56969810       0.48950413 </v>
  </varray>
  <varray name="selective"  type="logical" >
   <v type="logical" >  F  F  F </v>
   <v type="logical" >  F  F  F </v>
   <v type="logical" >  F  F  F </v>
   <v type="logical" >  F  F  F </v>
   <v type="logical" >  F  F  F </v>
   <v type="logical" >  F  F  F </v>
   <v type="logical" >  F  F  F </v>
   <v type="logical" >  F  F  F </v>
   <v type="logical" >  F  F  F </v>
   <v type="logical" >  F  F  F </v>
   <v type="logical" >  F  F  F </v>
   <v type="logical" >  F  F  F </v>
   <v type="logical" >  F  F  F </v>
   <v type="logical" >  F  F  F </v>
   <v type="logical" >  F  F  F </v>
   <v type="logical" >  F  F  F </v>
   <v type="logical" >  T  T  T </v>
   <v type="logical" >  T  T  T </v>
   <v type="logical" >  T  T  T </v>
   <v type="logical" >  T  T  T </v>
   <v type="logical" >  T  T  T </v>
   <v type="logical" >  T  T  T </v>
   <v type="logical" >  T  T  T </v>
   <v type="logical" >  T  T  T </v>
   <v type="logical" >  T  T  T </v>
   <v type="logical" >  T  T  T </v>
   <v type="logical" >  T  T  T </v>
   <v type="logical" >  T  T  T </v>
   <v type="logical" >  T  T  T </v>
   <v type="logical" >  T  T  T </v>
   <v type="logical" >  T  T  T </v>
   <v type="logical" >  T  T  T </v>
   <v type="logical" >  F  F  F </v>
   <v type="logical" >  F  F  F </v>
   <v type="logical" >  F  F  F </v>
   <v type="logical" >  F  F  F </v>
   <v type="logical" >  F  F  F </v>
   <v type="logical" >  F  F  F </v>
   <v type="logical" >  F  F  F </v>
   <v type="logical" >  F  F  F </v>
   <v type="logical" >  T  T  T </v>
   <v type="logical" >  T  T  T </v>
   <v type="logical" >  T  T  T </v>
   <v type="logical" >  T  T  T </v>
   <v type="logical" >  T  T  T </v>
   <v type="logical" >  T  T  T </v>
   <v type="logical" >  T  T  T </v>
   <v type="logical" >  T  T  T </v>
  </varray>
  <nose>
   <v>      -3.00000000       0.00000000       0.00010000       0.00010000 </v>
  </nose>
 </structure>
 <calculation>
  <scstep>
   <time name="dav">   47.76   47.77</time>
   <time name="total">   48.14   48.15</time>
   <energy>
    <i name="alphaZ">    669.22617347 </i>
    <i name="ewald">  66922.29252904 </i>
    <i name="hartreedc"> -90727.86174138 </i>
    <i name="XCdc">    618.99586751 </i>
    <i name="pawpsdc">  20780.61670850 </i>
    <i name="pawaedc"> -20167.12706525 </i>
    <i name="eentropy">     -0.01936573 </i>
    <i name="bandstr">    991.24568602 </i>
    <i name="atom">  23698.07519905 </i>
    <i name="e_fr_energy">   2785.44399124 </i>
    <i name="e_wo_entrp">   2785.46335697 </i>
    <i name="e_0_energy">   2785.45367410 </i>
   </energy>
  </scstep>
  <scstep>
   <time name="dav">   53.33   53.34</time>
   <time name="total">   53.34   53.35</time>
   <energy>
    <i name="e_fr_energy">    -55.77731324 </i>
    <i name="e_wo_entrp">    -55.74137415 </i>
    <i name="e_0_energy">    -55.75934370 </i>
   </energy>
  </scstep>
  <scstep>
   <time name="dav">   50.74   50.75</time>
   <time name="total">   50.75   50.77</time>
   <energy>
    <i name="e_fr_energy">   -365.95542231 </i>
    <i name="e_wo_entrp">   -365.92236720 </i>
    <i name="e_0_energy">   -365.93889475 </i>
   </energy>
  </scstep>
  <scstep>
   <time name="dav">   53.08   53.09</time>
   <time name="total">   53.09   53.11</time>
   <energy>
    <i name="e_fr_energy">   -373.07627270 </i>
    <i name="e_wo_entrp">   -373.04282228 </i>
    <i name="e_0_energy">   -373.05954749 </i>
   </energy>
  </scstep>
  <scstep>
   <time name="dav">   52.96   52.97</time>
   <time name="total">   54.90   54.91</time>
   <energy>
    <i name="e_fr_energy">   -373.23270979 </i>
    <i name="e_wo_entrp">   -373.19915128 </i>
    <i name="e_0_energy">   -373.21593054 </i>
   </energy>
  </scstep>
  <scstep>
   <time name="diag">    8.28    8.28</time>
   <time name="diis">   29.36   29.36</time>
   <time name="orth">    1.41    1.41</time>
   <time name="total">   41.34   41.36</time>
   <energy>
    <i name="e_fr_energy">   -291.34311075 </i>
    <i name="e_wo_entrp">   -291.29580012 </i>
    <i name="e_0_energy">   -291.31945544 </i>
   </energy>
  </scstep>
  <scstep>
   <time name="diag">    8.26    8.26</time>
   <time name="diis">   29.38   29.39</time>
   <time name="orth">    1.40    1.40</time>
   <time name="total">   41.36   41.38</time>
   <energy>
    <i name="e_fr_energy">   -310.58395813 </i>
    <i name="e_wo_entrp">   -310.53318801 </i>
    <i name="e_0_energy">   -310.55857307 </i>
   </energy>
  </scstep>
  <scstep>
   <time name="diag">    8.28    8.28</time>
   <time name="diis">   29.43   29.43</time>
   <time name="orth">    1.40    1.40</time>
   <time name="total">   41.42   41.44</time>
   <energy>
    <i name="e_fr_energy">   -321.55943828 </i>
    <i name="e_wo_entrp">   -321.54188182 </i>
    <i name="e_0_energy">   -321.55066005 </i>
   </energy>
  </scstep>
  <scstep>
   <time name="diag">    8.27    8.27</time>
   <time name="diis">   29.49   29.50</time>
   <time name="orth">    1.40    1.40</time>
   <time name="total">   41.47   41.49</time>
   <energy>
    <i name="e_fr_energy">   -266.27214636 </i>
    <i name="e_wo_entrp">   -266.24221709 </i>
    <i name="e_0_energy">   -266.25718172 </i>
   </energy>
  </scstep>
  <scstep>
   <time name="diag">    8.26    8.27</time>
   <time name="diis">   29.33   29.34</time>
   <time name="orth">    1.40    1.41</time>
   <time name="total">   41.31   41.33</time>
   <energy>
    <i name="e_fr_energy">   -270.80610159 </i>
    <i name="e_wo_entrp">   -270.76091238 </i>
    <i name="e_0_energy">   -270.78350698 </i>
   </energy>
  </scstep>
  <scstep>
   <time name="diag">    8.33    8.33</time>
   <time name="diis">   29.46   29.46</time>
   <time name="orth">    1.40    1.40</time>
   <time name="total">   41.54   41.55</time>
   <energy>
    <i name="e_fr_energy">   -262.96356294 </i>
    <i name="e_wo_entrp">   -262.93513329 </i>
    <i name="e_0_energy">   -262.94934811 </i>
   </energy>
  </scstep>
  <scstep>
   <time name="diag">    8.32    8.33</time>
   <time name="diis">   29.53   29.53</time>
   <time name="orth">    1.40    1.41</time>
   <time name="total">   41.61   41.63</time>
   <energy>
    <i name="e_fr_energy">   -269.00280790 </i>
    <i name="e_wo_entrp">   -268.96476486 </i>
    <i name="e_0_energy">   -268.98378638 </i>
   </energy>
  </scstep>
  <scstep>
   <time name="diag">    8.32    8.32</time>
   <time name="diis">   29.44   29.45</time>
   <time name="orth">    1.40    1.40</time>
   <time name="total">   41.52   41.54</time>
   <energy>
    <i name="e_fr_energy">   -275.23779396 </i>
    <i name="e_wo_entrp">   -275.19404343 </i>
    <i name="e_0_energy">   -275.21591870 </i>
   </energy>
  </scstep>
  <scstep>
   <time name="diag">    8.32    8.32</time>
   <time name="diis">   29.49   29.49</time>
   <time name="orth">    1.40    1.40</time>
   <time name="total">   41.57   41.59</time>
   <energy>
    <i name="e_fr_energy">   -282.72029672 </i>
    <i name="e_wo_entrp">   -282.67524298 </i>
    <i name="e_0_energy">   -282.69776985 </i>
   </energy>
  </scstep>
  <scstep>
   <time name="diag">    8.32    8.32</time>
   <time name="diis">   29.43   29.43</time>
   <time name="orth">    1.41    1.41</time>
   <time name="total">   41.52   41.54</time>
   <energy>
    <i name="e_fr_energy">   -294.80688009 </i>
    <i name="e_wo_entrp">   -294.76681084 </i>
    <i name="e_0_energy">   -294.78684546 </i>
   </energy>
  </scstep>
  <scstep>
   <time name="diag">    8.32    8.32</time>
   <time name="diis">   29.46   29.47</time>
   <time name="orth">    1.41    1.41</time>
   <time name="total">   41.51   41.52</time>
   <energy>
    <i name="e_fr_energy">   -299.29370988 </i>
    <i name="e_wo_entrp">   -299.25866527 </i>
    <i name="e_0_energy">   -299.27618758 </i>
   </energy>
  </scstep>
  <scstep>
   <time name="diag">    8.32    8.33</time>
   <time name="diis">   29.39   29.40</time>
   <time name="orth">    1.40    1.40</time>
   <time name="total">   41.43   41.45</time>
   <energy>
    <i name="e_fr_energy">   -304.22733303 </i>
    <i name="e_wo_entrp">   -304.20392412 </i>
    <i name="e_0_energy">   -304.21562857 </i>
   </energy>
  </scstep>
  <scstep>
   <time name="diag">    8.32    8.32</time>
   <time name="diis">   29.38   29.38</time>
   <time name="orth">    1.40    1.40</time>
   <time name="total">   41.55   41.56</time>
   <energy>
    <i name="e_fr_energy">   -304.97581734 </i>
    <i name="e_wo_entrp">   -304.95234398 </i>
    <i name="e_0_energy">   -304.96408066 </i>
   </energy>
  </scstep>
  <scstep>
   <time name="diag">    8.82    8.82</time>
   <time name="diis">   30.13   30.13</time>
   <time name="orth">    1.40    1.40</time>
   <time name="total">   42.71   42.73</time>
   <energy>
    <i name="e_fr_energy">   -305.30614696 </i>
    <i name="e_wo_entrp">   -305.27501193 </i>
    <i name="e_0_energy">   -305.29057945 </i>
   </energy>
  </scstep>
  <scstep>
   <time name="diag">    8.33    8.33</time>
   <time name="diis">   29.38   29.39</time>
   <time name="orth">    1.40    1.40</time>
   <time name="total">   41.43   41.45</time>
   <energy>
    <i name="e_fr_energy">   -306.37722644 </i>
    <i name="e_wo_entrp">   -306.33007584 </i>
    <i name="e_0_energy">   -306.35365114 </i>
   </energy>
  </scstep>
  <scstep>
   <time name="diag">    8.29    8.29</time>
   <time name="diis">   29.23   29.24</time>
   <time name="orth">    1.41    1.41</time>
   <time name="total">   41.26   41.28</time>
   <energy>
    <i name="e_fr_energy">   -306.89522476 </i>
    <i name="e_wo_entrp">   -306.84927272 </i>
    <i name="e_0_energy">   -306.87224874 </i>
   </energy>
  </scstep>
  <scstep>
   <time name="diag">    8.28    8.28</time>
   <time name="diis">   29.30   29.30</time>
   <time name="orth">    1.41    1.41</time>
   <time name="total">   41.31   41.33</time>
   <energy>
    <i name="e_fr_energy">   -307.16486505 </i>
    <i name="e_wo_entrp">   -307.11864786 </i>
    <i name="e_0_energy">   -307.14175645 </i>
   </energy>
  </scstep>
  <scstep>
   <time name="diag">    8.27    8.27</time>
   <time name="diis">   29.38   29.38</time>
   <time name="orth">    1.40    1.40</time>
   <time name="total">   41.39   41.41</time>
   <energy>
    <i name="e_fr_energy">   -307.27670732 </i>
    <i name="e_wo_entrp">   -307.23242210 </i>
    <i name="e_0_energy">   -307.25456471 </i>
   </energy>
  </scstep>
  <scstep>
   <time name="diag">    8.28    8.28</time>
   <time name="diis">   29.37   29.37</time>
   <time name="orth">    1.41    1.41</time>
   <time name="total">   41.39   41.41</time>
   <energy>
    <i name="e_fr_energy">   -307.50620819 </i>
    <i name="e_wo_entrp">   -307.46026204 </i>
    <i name="e_0_energy">   -307.48323511 </i>
   </energy>
  </scstep>
  <scstep>
   <time name="diag">    8.28    8.28</time>
   <time name="diis">   29.18   29.19</time>
   <time name="orth">    1.40    1.40</time>
   <time name="total">   41.20   41.22</time>
   <energy>
    <i name="e_fr_energy">   -307.66962717 </i>
    <i name="e_wo_entrp">   -307.62429204 </i>
    <i name="e_0_energy">   -307.64695960 </i>
   </energy>
  </scstep>
  <scstep>
   <time name="diag">    8.26    8.26</time>
   <time name="diis">   29.24   29.25</time>
   <time name="orth">    1.40    1.40</time>
   <time name="total">   41.24   41.26</time>
   <energy>
    <i name="e_fr_energy">   -307.69088349 </i>
    <i name="e_wo_entrp">   -307.64462710 </i>
    <i name="e_0_energy">   -307.66775530 </i>
   </energy>
  </scstep>
  <scstep>
   <time name="diag">    8.28    8.28</time>
   <time name="diis">   29.26   29.27</time>
   <time name="orth">    1.40    1.40</time>
   <time name="total">   41.28   41.30</time>
   <energy>
    <i name="e_fr_energy">   -307.70026721 </i>
    <i name="e_wo_entrp">   -307.65337799 </i>
    <i name="e_0_energy">   -307.67682260 </i>
   </energy>
  </scstep>
  <scstep>
   <time name="diag">    8.26    8.27</time>
   <time name="diis">   29.28   29.28</time>
   <time name="orth">    1.40    1.40</time>
   <time name="total">   41.27   41.29</time>
   <energy>
    <i name="e_fr_energy">   -307.68975962 </i>
    <i name="e_wo_entrp">   -307.64271918 </i>
    <i name="e_0_energy">   -307.66623940 </i>
   </energy>
  </scstep>
  <scstep>
   <time name="diag">    8.26    8.26</time>
   <time name="diis">   29.25   29.25</time>
   <time name="orth">    1.40    1.41</time>
   <time name="total">   41.25   41.26</time>
   <energy>
    <i name="e_fr_energy">   -307.67994617 </i>
    <i name="e_wo_entrp">   -307.63359423 </i>
    <i name="e_0_energy">   -307.65677020 </i>
   </energy>
  </scstep>
  <scstep>
   <time name="diag">    8.26    8.26</time>
   <time name="diis">   29.22   29.22</time>
   <time name="orth">    1.40    1.40</time>
   <time name="total">   41.21   41.23</time>
   <energy>
    <i name="e_fr_energy">   -307.68917719 </i>
    <i name="e_wo_entrp">   -307.64254442 </i>
    <i name="e_0_energy">   -307.66586081 </i>
   </energy>
  </scstep>
  <scstep>
   <time name="diag">    8.26    8.26</time>
   <time name="diis">   28.01   28.01</time>
   <time name="orth">    1.40    1.40</time>
   <time name="total">   39.96   39.98</time>
   <energy>
    <i name="e_fr_energy">   -307.69820130 </i>
    <i name="e_wo_entrp">   -307.65134370 </i>
    <i name="e_0_energy">   -307.67477250 </i>
   </energy>
  </scstep>
  <scstep>
   <time name="diag">    8.25    8.26</time>
   <time name="diis">   25.06   25.06</time>
   <time name="orth">    1.41    1.41</time>
   <time name="total">   37.01   37.02</time>
   <energy>
    <i name="e_fr_energy">   -307.70655884 </i>
    <i name="e_wo_entrp">   -307.65971797 </i>
    <i name="e_0_energy">   -307.68313840 </i>
   </energy>
  </scstep>
  <scstep>
   <time name="diag">    8.25    8.25</time>
   <time name="diis">   20.41   20.41</time>
   <time name="orth">    1.40    1.40</time>
   <time name="total">   32.35   32.36</time>
   <energy>
    <i name="e_fr_energy">   -307.72105622 </i>
    <i name="e_wo_entrp">   -307.67415425 </i>
    <i name="e_0_energy">   -307.69760523 </i>
   </energy>
  </scstep>
  <scstep>
   <time name="diag">    8.25    8.25</time>
   <time name="diis">   19.13   19.14</time>
   <time name="orth">    1.41    1.41</time>
   <time name="total">   31.08   31.10</time>
   <energy>
    <i name="e_fr_energy">   -307.72925145 </i>
    <i name="e_wo_entrp">   -307.68230195 </i>
    <i name="e_0_energy">   -307.70577670 </i>
   </energy>
  </scstep>
  <scstep>
   <time name="diag">    8.25    8.25</time>
   <time name="diis">   19.10   19.10</time>
   <time name="orth">    1.41    1.41</time>
   <time name="total">   31.08   31.09</time>
   <energy>
    <i name="e_fr_energy">   -307.73747611 </i>
    <i name="e_wo_entrp">   -307.69048012 </i>
    <i name="e_0_energy">   -307.71397812 </i>
   </energy>
  </scstep>
  <scstep>
   <time name="diag">    8.29    8.29</time>
   <time name="diis">   17.99   17.99</time>
   <time name="orth">    1.40    1.40</time>
   <time name="total">   30.03   30.04</time>
   <energy>
    <i name="e_fr_energy">   -307.74126582 </i>
    <i name="e_wo_entrp">   -307.69422722 </i>
    <i name="e_0_energy">   -307.71774652 </i>
   </energy>
  </scstep>
  <scstep>
   <time name="diag">    8.29    8.29</time>
   <time name="diis">   17.61   17.61</time>
   <time name="orth">    1.40    1.40</time>
   <time name="total">   29.64   29.65</time>
   <energy>
    <i name="e_fr_energy">   -307.74367073 </i>
    <i name="e_wo_entrp">   -307.69659901 </i>
    <i name="e_0_energy">   -307.72013487 </i>
   </energy>
  </scstep>
  <scstep>
   <time name="diag">    8.28    8.28</time>
   <time name="diis">   18.23   18.24</time>
   <time name="orth">    1.40    1.40</time>
   <time name="total">   30.26   30.27</time>
   <energy>
    <i name="e_fr_energy">   -307.74680288 </i>
    <i name="e_wo_entrp">   -307.69969044 </i>
    <i name="e_0_energy">   -307.72324666 </i>
   </energy>
  </scstep>
  <scstep>
   <time name="diag">    8.28    8.28</time>
   <time name="diis">   16.30   16.30</time>
   <time name="orth">    1.40    1.40</time>
   <time name="total">   28.32   28.34</time>
   <energy>
    <i name="e_fr_energy">   -307.74829257 </i>
    <i name="e_wo_entrp">   -307.70115372 </i>
    <i name="e_0_energy">   -307.72472315 </i>
   </energy>
  </scstep>
  <scstep>
   <time name="diag">    8.27    8.28</time>
   <time name="diis">   15.92   15.92</time>
   <time name="orth">    1.40    1.40</time>
   <time name="total">   27.94   27.95</time>
   <energy>
    <i name="e_fr_energy">   -307.74889886 </i>
    <i name="e_wo_entrp">   -307.70173468 </i>
    <i name="e_0_energy">   -307.72531677 </i>
   </energy>
  </scstep>
  <scstep>
   <time name="diag">    8.33    8.33</time>
   <time name="diis">   16.50   16.50</time>
   <time name="orth">    1.41    1.41</time>
   <time name="total">   26.61   26.62</time>
   <energy>
    <i name="alphaZ">    669.22617347 </i>
    <i name="ewald">  66922.29252904 </i>
    <i name="hartreedc"> -90860.21133739 </i>
    <i name="XCdc">    632.17077823 </i>
    <i name="pawpsdc">  29690.52120659 </i>
    <i name="pawaedc"> -29157.71843263 </i>
    <i name="eentropy">     -0.04718897 </i>
    <i name="bandstr">  -1902.05787498 </i>
    <i name="atom">  23698.07519905 </i>
    <i name="e_fr_energy">   -307.74894758 </i>
    <i name="e_wo_entrp">   -307.70175861 </i>
    <i name="e_0_energy">   -307.72535310 </i>
   </energy>
  </scstep>
  <structure>
   <crystal>
    <varray name="basis" >
     <v>       0.00000000       0.00000000       6.19967903 </v>
     <v>       4.49638446      -4.49638446       0.00000000 </v>
     <v>      15.55331725      15.55331725       0.00000000 </v>
    </varray>
    <i name="volume">    867.13291217 </i>
    <varray name="rec_basis" >
     <v>       0.00000000       0.00000000       0.16129867 </v>
     <v>       0.11120046      -0.11120046       0.00000000 </v>
     <v>       0.03214748       0.03214748       0.00000000 </v>
    </varray>
   </crystal>
   <varray name="positions" >
    <v>       0.13081166       0.56969810       0.00000000 </v>
    <v>       0.63081166       0.56969810       0.00000000 </v>
    <v>       0.38081166       0.26292810       0.05586180 </v>
    <v>       0.88081166       0.26292810       0.05586180 </v>
    <v>       0.38081166       0.87646810       0.05586180 </v>
    <v>       0.88081166       0.87646810       0.05586180 </v>
    <v>       0.13081166       0.56969810       0.11172361 </v>
    <v>       0.63081166       0.56969810       0.11172361 </v>
    <v>       0.13081166       0.06969810       0.14454744 </v>
    <v>       0.63081166       0.06969810       0.14454744 </v>
    <v>       0.38081166       0.37646810       0.20040925 </v>
    <v>       0.88081166       0.37646810       0.20040925 </v>
    <v>       0.38081166       0.76292810       0.20040925 </v>
    <v>       0.88081166       0.76292810       0.20040925 </v>
    <v>       0.13081166       0.06969810       0.25627105 </v>
    <v>       0.63081166       0.06969810       0.25627105 </v>
    <v>       0.13081166       0.56969810       0.28909489 </v>
    <v>       0.63081166       0.56969810       0.28909489 </v>
    <v>       0.38081166       0.26292810       0.34495669 </v>
    <v>       0.88081166       0.26292810       0.34495669 </v>
    <v>       0.38081166       0.87646810       0.34495669 </v>
    <v>       0.88081166       0.87646810       0.34495669 </v>
    <v>       0.13081166       0.56969810       0.40081849 </v>
    <v>       0.63081166       0.56969810       0.40081849 </v>
    <v>       0.13081166       0.06969810       0.43364233 </v>
    <v>       0.63081166       0.06969810       0.43364233 </v>
    <v>       0.38081166       0.37646810       0.48950413 </v>
    <v>       0.88081166       0.37646810       0.48950413 </v>
    <v>       0.38081166       0.76292810       0.48950413 </v>
    <v>       0.88081166       0.76292810       0.48950413 </v>
    <v>       0.13081166       0.06969810       0.54536594 </v>
    <v>       0.63081166       0.06969810       0.54536594 </v>
    <v>       0.13081166       0.06969810       0.05586180 </v>
    <v>       0.63081166       0.06969810       0.05586180 </v>
    <v>       0.38081166       0.56969810       0.05586180 </v>
    <v>       0.88081166       0.56969810       0.05586180 </v>
    <v>       0.38081166       0.06969810       0.20040925 </v>
    <v>       0.88081166       0.06969810       0.20040925 </v>
    <v>       0.13081166       0.56969810       0.20040925 </v>
    <v>       0.63081166       0.56969810       0.20040925 </v>
    <v>       0.13081166       0.06969810       0.34495669 </v>
    <v>       0.63081166       0.06969810       0.34495669 </v>
    <v>       0.38081166       0.56969810       0.34495669 </v>
    <v>       0.88081166       0.56969810       0.34495669 </v>
    <v>       0.38081166       0.06969810       0.48950413 </v>
    <v>       0.88081166       0.06969810       0.48950413 </v>
    <v>       0.13081166       0.56969810       0.48950413 </v>
    <v>       0.63081166       0.56969810       0.48950413 </v>
   </varray>
  </structure>
  <varray name="forces" >
   <v>       0.29244533       0.28495780      -0.00075859 </v>
   <v>       0.29275837       0.28526251      -0.00097454 </v>
   <v>      -0.61396466      -0.33962014       0.00048826 </v>
   <v>      -0.61410471      -0.33949852       0.00041267 </v>
   <v>      -0.33620568      -0.61689313      -0.00189545 </v>
   <v>      -0.33608068      -0.61703966      -0.00197089 </v>
   <v>       0.14428691       0.14039776      -0.00175785 </v>
   <v>       0.14436406       0.14047506      -0.00205185 </v>
   <v>      -0.14384721      -0.14804604      -0.00200697 </v>
   <v>      -0.14389840      -0.14810153      -0.00198408 </v>
   <v>      -0.00884801      -0.05734863      -0.00158897 </v>
   <v>      -0.00889785      -0.05729954      -0.00149175 </v>
   <v>      -0.05379535      -0.01216479       0.00065381 </v>
   <v>      -0.05374653      -0.01221816       0.00074654 </v>
   <v>       0.11992955       0.11249369      -0.00096975 </v>
   <v>       0.11985732       0.11241756      -0.00081465 </v>
   <v>      -0.11674116      -0.12342799      -0.00042530 </v>
   <v>      -0.11653975      -0.12321700      -0.00055781 </v>
   <v>       0.01019521       0.05094145      -0.00114164 </v>
   <v>       0.01014554       0.05111133      -0.00084583 </v>
   <v>       0.05623145       0.00613454      -0.00294786 </v>
   <v>       0.05640321       0.00608466      -0.00265564 </v>
   <v>       0.14519912       0.14116729      -0.00090304 </v>
   <v>       0.14475973       0.14073196      -0.00086357 </v>
   <v>      -0.14157537      -0.14648921      -0.00004979 </v>
   <v>      -0.14130063      -0.14621006       0.00106067 </v>
   <v>       0.61805664       0.33765475      -0.00364403 </v>
   <v>       0.61739093       0.33818455      -0.00304749 </v>
   <v>       0.33860880       0.61453649       0.00063140 </v>
   <v>       0.33914558       0.61387380       0.00122403 </v>
   <v>      -0.28741439      -0.29339961       0.00050307 </v>
   <v>      -0.28713551      -0.29311021       0.00146487 </v>
   <v>       1.15224968       1.15364467       0.00345167 </v>
   <v>       1.15227878       1.15367563       0.00332344 </v>
   <v>      -0.42144762      -0.40401763       0.00154740 </v>
   <v>      -0.42139493      -0.40396925       0.00303472 </v>
   <v>      -0.18128594      -0.16439638       0.00176149 </v>
   <v>      -0.18126568      -0.16437436       0.00189032 </v>
   <v>      -0.09162723      -0.09151630       0.00308628 </v>
   <v>      -0.09165845      -0.09154705       0.00329377 </v>
   <v>       0.09783367       0.09762137       0.00382029 </v>
   <v>       0.09782906       0.09761846       0.00350508 </v>
   <v>       0.16806675       0.18072257      -0.00241398 </v>
   <v>       0.16801488       0.18066968      -0.00225295 </v>
   <v>       0.39984049       0.42246972      -0.00079162 </v>
   <v>       0.40018590       0.42281993      -0.00203443 </v>
   <v>      -1.14708744      -1.14631568       0.00319040 </v>
   <v>      -1.14621375      -1.14544635       0.00375019 </v>
  </varray>
  <varray name="stress" >
   <v>      -4.79717890      -1.20920582       0.06655013 </v>
   <v>      -1.20920584      -4.76895385       0.12381946 </v>
   <v>       0.06655007       0.12381953     -13.08855526 </v>
  </varray>
  <energy>
   <i name="e_fr_energy">   -316.91183820 </i>
   <i name="e_wo_entrp">   -316.88824371 </i>
   <i name="e_0_energy">     -0.04718897 </i>
  </energy>
  <time name="totalsc"> 1697.15 1697.88</time>
 </calculation>
 <calculation>
  <scstep>
   <time name="dav">   49.00   49.01</time>
   <time name="total">   51.33   51.34</time>
   <energy>
    <i name="alphaZ">    669.22617347 </i>
    <i name="ewald">  66940.65734922 </i>
    <i name="hartreedc"> -90877.54945515 </i>
    <i name="XCdc">    632.24259812 </i>
    <i name="pawpsdc">  29690.46907031 </i>
    <i name="pawaedc"> -29157.66674404 </i>
    <i name="eentropy">     -0.04774425 </i>
    <i name="bandstr">  -1903.22458817 </i>
    <i name="atom">  23698.07519905 </i>
    <i name="e_fr_energy">   -307.81814144 </i>
    <i name="e_wo_entrp">   -307.77039719 </i>
    <i name="e_0_energy">   -307.79426931 </i>
   </energy>
  </scstep>
  <scstep>
   <time name="diag">    8.29    8.29</time>
   <time name="diis">   29.14   29.14</time>
   <time name="orth">    1.41    1.41</time>
   <time name="total">   41.15   41.16</time>
   <energy>
    <i name="e_fr_energy">   -307.83544763 </i>
    <i name="e_wo_entrp">   -307.78922553 </i>
    <i name="e_0_energy">   -307.81233658 </i>
   </energy>
  </scstep>
  <scstep>
   <time name="diag">    8.29    8.29</time>
   <time name="diis">   27.98   27.98</time>
   <time name="orth">    1.41    1.41</time>
   <time name="total">   39.99   40.00</time>
   <energy>
    <i name="e_fr_energy">   -307.82440197 </i>
    <i name="e_wo_entrp">   -307.77600060 </i>
    <i name="e_0_energy">   -307.80020128 </i>
   </energy>
  </scstep>
  <scstep>
   <time name="diag">    8.29    8.29</time>
   <time name="diis">   28.74   28.74</time>
   <time name="orth">    1.41    1.41</time>
   <time name="total">   40.74   40.76</time>
   <energy>
    <i name="e_fr_energy">   -307.82986080 </i>
    <i name="e_wo_entrp">   -307.78375351 </i>
    <i name="e_0_energy">   -307.80680716 </i>
   </energy>
  </scstep>
  <scstep>
   <time name="diag">    8.29    8.29</time>
   <time name="diis">   29.07   29.07</time>
   <time name="orth">    1.41    1.41</time>
   <time name="total">   41.07   41.09</time>
   <energy>
    <i name="e_fr_energy">   -307.82817706 </i>
    <i name="e_wo_entrp">   -307.78045835 </i>
    <i name="e_0_energy">   -307.80431771 </i>
   </energy>
  </scstep>
  <scstep>
   <time name="diag">    8.29    8.29</time>
   <time name="diis">   27.93   27.94</time>
   <time name="orth">    1.41    1.41</time>
   <time name="total">   39.94   39.95</time>
   <energy>
    <i name="e_fr_energy">   -307.82363345 </i>
    <i name="e_wo_entrp">   -307.77624720 </i>
    <i name="e_0_energy">   -307.79994033 </i>
   </energy>
  </scstep>
  <scstep>
   <time name="diag">    8.29    8.29</time>
   <time name="diis">   27.04   27.04</time>
   <time name="orth">    1.41    1.41</time>
   <time name="total">   39.05   39.07</time>
   <energy>
    <i name="e_fr_energy">   -307.82168105 </i>
    <i name="e_wo_entrp">   -307.77357260 </i>
    <i name="e_0_energy">   -307.79762682 </i>
   </energy>
  </scstep>
  <scstep>
   <time name="diag">    8.29    8.29</time>
   <time name="diis">   22.90   22.91</time>
   <time name="orth">    1.41    1.41</time>
   <time name="total">   34.91   34.93</time>
   <energy>
    <i name="e_fr_energy">   -307.82149485 </i>
    <i name="e_wo_entrp">   -307.77365637 </i>
    <i name="e_0_energy">   -307.79757561 </i>
   </energy>
  </scstep>
  <scstep>
   <time name="diag">    8.28    8.29</time>
   <time name="diis">   17.27   17.27</time>
   <time name="orth">    1.42    1.42</time>
   <time name="total">   29.28   29.30</time>
   <energy>
    <i name="e_fr_energy">   -307.82131477 </i>
    <i name="e_wo_entrp">   -307.77330595 </i>
    <i name="e_0_energy">   -307.79731036 </i>
   </energy>
  </scstep>
  <scstep>
   <time name="diag">    8.29    8.29</time>
   <time name="diis">   16.70   16.70</time>
   <time name="orth">    1.42    1.42</time>
   <time name="total">   26.77   26.79</time>
   <energy>
    <i name="alphaZ">    669.22617347 </i>
    <i name="ewald">  66940.65734922 </i>
    <i name="hartreedc"> -90876.50294530 </i>
    <i name="XCdc">    632.25935575 </i>
    <i name="pawpsdc">  29710.62207071 </i>
    <i name="pawaedc"> -29177.93973546 </i>
    <i name="eentropy">     -0.04797818 </i>
    <i name="bandstr">  -1904.17077004 </i>
    <i name="atom">  23698.07519905 </i>
    <i name="e_fr_energy">   -307.82128078 </i>
    <i name="e_wo_entrp">   -307.77330260 </i>
    <i name="e_0_energy">   -307.79729169 </i>
   </energy>
  </scstep>
  <structure>
   <crystal>
    <varray name="basis" >
     <v>       0.00000000       0.00000000       6.19967903 </v>
     <v>       4.49638446      -4.49638446       0.00000000 </v>
     <v>      15.55331725      15.55331725       0.00000000 </v>
    </varray>
    <i name="volume">    867.13291217 </i>
    <varray name="rec_basis" >
     <v>       0.00000000       0.00000000       0.16129867 </v>
     <v>       0.11120046      -0.11120046       0.00000000 </v>
     <v>       0.03214748       0.03214748       0.00000000 </v>
    </varray>
   </crystal>
   <varray name="positions" >
    <v>       0.13081166       0.56969810       0.00000000 </v>
    <v>       0.63081166       0.56969810       0.00000000 </v>
    <v>       0.38081166       0.26292810       0.05586180 </v>
    <v>       0.88081166       0.26292810       0.05586180 </v>
    <v>       0.38081166       0.87646810       0.05586180 </v>
    <v>       0.88081166       0.87646810       0.05586180 </v>
    <v>       0.13081166       0.56969810       0.11172361 </v>
    <v>       0.63081166       0.56969810       0.11172361 </v>
    <v>       0.13081166       0.06969810       0.14454744 </v>
    <v>       0.63081166       0.06969810       0.14454744 </v>
    <v>       0.38081166       0.37646810       0.20040925 </v>
    <v>       0.88081166       0.37646810       0.20040925 </v>
    <v>       0.38081166       0.76292810       0.20040925 </v>
    <v>       0.88081166       0.76292810       0.20040925 </v>
    <v>       0.13081166       0.06969810       0.25627105 </v>
    <v>       0.63081166       0.06969810       0.25627105 </v>
    <v>       0.13081100       0.56970527       0.28902039 </v>
    <v>       0.63081079       0.56970526       0.28902052 </v>
    <v>       0.38080988       0.26288438       0.34497565 </v>
    <v>       0.88081035       0.26288414       0.34497569 </v>
    <v>       0.38080707       0.87652185       0.34497603 </v>
    <v>       0.88080753       0.87652208       0.34497607 </v>
    <v>       0.13081026       0.56970242       0.40090732 </v>
    <v>       0.63081032       0.56970242       0.40090705 </v>
    <v>       0.13081158       0.06970337       0.43355298 </v>
    <v>       0.63081331       0.06970336       0.43355315 </v>
    <v>       0.38080599       0.37676894       0.48980057 </v>
    <v>       0.88080692       0.37676766       0.48980053 </v>
    <v>       0.38081264       0.76263205       0.48979978 </v>
    <v>       0.88081357       0.76263333       0.48979974 </v>
    <v>       0.13081244       0.06970452       0.54518578 </v>
    <v>       0.63081394       0.06970451       0.54518596 </v>
    <v>       0.13081166       0.06969810       0.05586180 </v>
    <v>       0.63081166       0.06969810       0.05586180 </v>
    <v>       0.38081166       0.56969810       0.05586180 </v>
    <v>       0.88081166       0.56969810       0.05586180 </v>
    <v>       0.38081166       0.06969810       0.20040925 </v>
    <v>       0.88081166       0.06969810       0.20040925 </v>
    <v>       0.13081166       0.56969810       0.20040925 </v>
    <v>       0.63081166       0.56969810       0.20040925 </v>
    <v>       0.13081761       0.06969832       0.34501732 </v>
    <v>       0.63081712       0.06969832       0.34501731 </v>
    <v>       0.38080790       0.56968452       0.34506488 </v>
    <v>       0.88080816       0.56968452       0.34506484 </v>
    <v>       0.38081043       0.06967382       0.48975919 </v>
    <v>       0.88080850       0.06967381       0.48975941 </v>
    <v>       0.13081663       0.56969727       0.48879277 </v>
    <v>       0.63081750       0.56969727       0.48879331 </v>
   </varray>
  </structure>
  <varray name="forces" >
   <v>       0.29436616       0.28646663      -0.00078565 </v>
   <v>       0.29436306       0.28646522      -0.00080101 </v>
   <v>      -0.61229059      -0.33950615       0.00052759 </v>
   <v>      -0.61230018      -0.33950472       0.00053256 </v>
   <v>      -0.33574813      -0.61558124      -0.00186141 </v>
   <v>      -0.33574668      -0.61559017      -0.00185660 </v>
   <v>       0.14319933       0.13895657      -0.00183651 </v>
   <v>       0.14319014       0.13894851      -0.00184325 </v>
   <v>      -0.14321282      -0.14779903      -0.00186087 </v>
   <v>      -0.14320641      -0.14779254      -0.00190583 </v>
   <v>      -0.01282312      -0.05882652      -0.00147337 </v>
   <v>      -0.01277553      -0.05886892      -0.00146697 </v>
   <v>      -0.05490455      -0.01660586       0.00077277 </v>
   <v>      -0.05494593      -0.01655812       0.00077852 </v>
   <v>       0.13468382       0.12676186      -0.00065832 </v>
   <v>       0.13469496       0.12677257      -0.00073967 </v>
   <v>      -0.04656393      -0.05248548      -0.00175707 </v>
   <v>      -0.04660774      -0.05252861      -0.00174844 </v>
   <v>       0.02054937       0.04703653      -0.00018640 </v>
   <v>       0.02054558       0.04701095      -0.00024251 </v>
   <v>       0.05043420       0.01789895      -0.00160765 </v>
   <v>       0.05040891       0.01789676      -0.00166155 </v>
   <v>       0.03555341       0.03154039      -0.00067100 </v>
   <v>       0.03572454       0.03170807      -0.00067463 </v>
   <v>      -0.05159210      -0.05609894       0.00099541 </v>
   <v>      -0.05169125      -0.05620152       0.00065655 </v>
   <v>       0.55511255       0.30474048      -0.00150127 </v>
   <v>       0.55532374       0.30453837      -0.00162009 </v>
   <v>       0.30332408       0.55269777       0.00276884 </v>
   <v>       0.30311921       0.55290516       0.00265092 </v>
   <v>      -0.18477188      -0.18902144      -0.00110622 </v>
   <v>      -0.18478078      -0.18903039      -0.00136705 </v>
   <v>       1.15265153       1.15366800       0.00347147 </v>
   <v>       1.15265025       1.15366682       0.00345724 </v>
   <v>      -0.42495800      -0.40791858       0.00238084 </v>
   <v>      -0.42494476      -0.40790461       0.00236488 </v>
   <v>      -0.17807320      -0.16135027       0.00182719 </v>
   <v>      -0.17806879      -0.16134511       0.00184750 </v>
   <v>      -0.10022287      -0.10058238       0.00332008 </v>
   <v>      -0.10019870      -0.10055741       0.00325967 </v>
   <v>       0.06276212       0.06283775       0.00085316 </v>
   <v>       0.06276717       0.06284195       0.00100811 </v>
   <v>       0.06498606       0.07667420      -0.00595276 </v>
   <v>       0.06498744       0.07667444      -0.00596970 </v>
   <v>       0.23527322       0.25356894       0.00190214 </v>
   <v>       0.23517544       0.25346923       0.00258482 </v>
   <v>      -0.90765560      -0.90699085       0.00269102 </v>
   <v>      -0.90776279      -0.90709727       0.00250449 </v>
  </varray>
  <varray name="stress" >
   <v>      -3.68498580      -0.37941162       0.05729493 </v>
   <v>      -0.37941153      -3.64847273       0.11711490 </v>
   <v>       0.05729497       0.11711485     -13.02072607 </v>
  </varray>
  <energy>
   <i name="e_fr_energy">   -316.98564868 </i>
   <i name="e_wo_entrp">   -316.96165959 </i>
   <i name="e_0_energy">     -0.04797818 </i>
  </energy>
  <time name="totalsc">  439.66  439.87</time>
 </calculation>
 <calculation>
  <scstep>
   <time name="dav">   47.98   47.98</time>
   <time name="total">   50.27   50.28</time>
   <energy>
    <i name="alphaZ">    669.22617347 </i>
    <i name="ewald">  66994.26820758 </i>
    <i name="hartreedc"> -90927.79936844 </i>
    <i name="XCdc">    632.47647619 </i>
    <i name="pawpsdc">  29710.68719784 </i>
    <i name="pawaedc"> -29178.00478147 </i>
    <i name="eentropy">     -0.04651233 </i>
    <i name="bandstr">  -1906.77303230 </i>
    <i name="atom">  23698.07519905 </i>
    <i name="e_fr_energy">   -307.89044040 </i>
    <i name="e_wo_entrp">   -307.84392808 </i>
    <i name="e_0_energy">   -307.86718424 </i>
   </energy>
  </scstep>
  <scstep>
   <time name="diag">    8.36    8.36</time>
   <time name="diis">   29.12   29.13</time>
   <time name="orth">    1.41    1.41</time>
   <time name="total">   41.19   41.20</time>
   <energy>
    <i name="e_fr_energy">   -308.04197981 </i>
    <i name="e_wo_entrp">   -307.99585268 </i>
    <i name="e_0_energy">   -308.01891624 </i>
   </energy>
  </scstep>
  <scstep>
   <time name="diag">    8.36    8.36</time>
   <time name="diis">   29.18   29.18</time>
   <time name="orth">    1.41    1.41</time>
   <time name="total">   41.25   41.27</time>
   <energy>
    <i name="e_fr_energy">   -307.94723508 </i>
    <i name="e_wo_entrp">   -307.90001677 </i>
    <i name="e_0_energy">   -307.92362592 </i>
   </energy>
  </scstep>
  <scstep>
   <time name="diag">    8.37    8.37</time>
   <time name="diis">   29.18   29.18</time>
   <time name="orth">    1.41    1.41</time>
   <time name="total">   41.24   41.26</time>
   <energy>
    <i name="e_fr_energy">   -307.99909800 </i>
    <i name="e_wo_entrp">   -307.95458218 </i>
    <i name="e_0_energy">   -307.97684009 </i>
   </energy>
  </scstep>
  <scstep>
   <time name="diag">    8.37    8.37</time>
   <time name="diis">   28.98   28.98</time>
   <time name="orth">    1.41    1.41</time>
   <time name="total">   41.06   41.07</time>
   <energy>
    <i name="e_fr_energy">   -307.95115756 </i>
    <i name="e_wo_entrp">   -307.90370018 </i>
    <i name="e_0_energy">   -307.92742887 </i>
   </energy>
  </scstep>
  <scstep>
   <time name="diag">    8.37    8.37</time>
   <time name="diis">   29.05   29.05</time>
   <time name="orth">    1.41    1.41</time>
   <time name="total">   41.13   41.15</time>
   <energy>
    <i name="e_fr_energy">   -307.93786879 </i>
    <i name="e_wo_entrp">   -307.89275905 </i>
    <i name="e_0_energy">   -307.91531392 </i>
   </energy>
  </scstep>
  <scstep>
   <time name="diag">    8.36    8.36</time>
   <time name="diis">   29.02   29.02</time>
   <time name="orth">    1.41    1.41</time>
   <time name="total">   41.08   41.10</time>
   <energy>
    <i name="e_fr_energy">   -307.92699324 </i>
    <i name="e_wo_entrp">   -307.88096061 </i>
    <i name="e_0_energy">   -307.90397692 </i>
   </energy>
  </scstep>
  <scstep>
   <time name="diag">    8.36    8.36</time>
   <time name="diis">   28.68   28.68</time>
   <time name="orth">    1.41    1.41</time>
   <time name="total">   40.74   40.76</time>
   <energy>
    <i name="e_fr_energy">   -307.92330091 </i>
    <i name="e_wo_entrp">   -307.87668758 </i>
    <i name="e_0_energy">   -307.89999424 </i>
   </energy>
  </scstep>
  <scstep>
   <time name="diag">    8.36    8.36</time>
   <time name="diis">   26.68   26.68</time>
   <time name="orth">    1.41    1.41</time>
   <time name="total">   38.75   38.77</time>
   <energy>
    <i name="e_fr_energy">   -307.92207291 </i>
    <i name="e_wo_entrp">   -307.87533225 </i>
    <i name="e_0_energy">   -307.89870258 </i>
   </energy>
  </scstep>
  <scstep>
   <time name="diag">    8.36    8.36</time>
   <time name="diis">   19.94   19.94</time>
   <time name="orth">    1.41    1.41</time>
   <time name="total">   32.01   32.03</time>
   <energy>
    <i name="e_fr_energy">   -307.92187711 </i>
    <i name="e_wo_entrp">   -307.87524206 </i>
    <i name="e_0_energy">   -307.89855958 </i>
   </energy>
  </scstep>
  <scstep>
   <time name="diag">    8.36    8.37</time>
   <time name="diis">   18.98   18.98</time>
   <time name="orth">    1.41    1.41</time>
   <time name="total">   29.13   29.14</time>
   <energy>
    <i name="alphaZ">    669.22617347 </i>
    <i name="ewald">  66994.26820758 </i>
    <i name="hartreedc"> -90925.61128454 </i>
    <i name="XCdc">    632.52061293 </i>
    <i name="pawpsdc">  29778.21065133 </i>
    <i name="pawaedc"> -29245.87733355 </i>
    <i name="eentropy">     -0.04682544 </i>
    <i name="bandstr">  -1908.68725646 </i>
    <i name="atom">  23698.07519905 </i>
    <i name="e_fr_energy">   -307.92185562 </i>
    <i name="e_wo_entrp">   -307.87503018 </i>
    <i name="e_0_energy">   -307.89844290 </i>
   </energy>
  </scstep>
  <structure>
   <crystal>
    <varray name="basis" >
     <v>       0.00000000       0.00000000       6.19967903 </v>
     <v>       4.49638446      -4.49638446       0.00000000 </v>
     <v>      15.55331725      15.55331725       0.00000000 </v>
    </varray>
    <i name="volume">    867.13291217 </i>
    <varray name="rec_basis" >
     <v>       0.00000000       0.00000000       0.16129867 </v>
     <v>       0.11120046      -0.11120046       0.00000000 </v>
     <v>       0.03214748       0.03214748       0.00000000 </v>
    </varray>
   </crystal>
   <varray name="positions" >
    <v>       0.13081166       0.56969810       0.00000000 </v>
    <v>       0.63081166       0.56969810       0.00000000 </v>
    <v>       0.38081166       0.26292810       0.05586180 </v>
    <v>       0.88081166       0.26292810       0.05586180 </v>
    <v>       0.38081166       0.87646810       0.05586180 </v>
    <v>       0.88081166       0.87646810       0.05586180 </v>
    <v>       0.13081166       0.56969810       0.11172361 </v>
    <v>       0.63081166       0.56969810       0.11172361 </v>
    <v>       0.13081166       0.06969810       0.14454744 </v>
    <v>       0.63081166       0.06969810       0.14454744 </v>
    <v>       0.38081166       0.37646810       0.20040925 </v>
    <v>       0.88081166       0.37646810       0.20040925 </v>
    <v>       0.38081166       0.76292810       0.20040925 </v>
    <v>       0.88081166       0.76292810       0.20040925 </v>
    <v>       0.13081166       0.06969810       0.25627105 </v>
    <v>       0.63081166       0.06969810       0.25627105 </v>
    <v>       0.13080901       0.56972679       0.28879691 </v>
    <v>       0.63080819       0.56972675       0.28879742 </v>
    <v>       0.38080455       0.26275323       0.34503254 </v>
    <v>       0.88080640       0.26275228       0.34503269 </v>
    <v>       0.38079331       0.87668310       0.34503407 </v>
    <v>       0.88079513       0.87668405       0.34503422 </v>
    <v>       0.13080604       0.56971540       0.40117379 </v>
    <v>       0.63080629       0.56971538       0.40117271 </v>
    <v>       0.13081135       0.06971918       0.43328492 </v>
    <v>       0.63081826       0.06971917       0.43328561 </v>
    <v>       0.38078898       0.37767149       0.49068989 </v>
    <v>       0.88079269       0.37766636       0.49068972 </v>
    <v>       0.38081559       0.76174390       0.49068670 </v>
    <v>       0.88081928       0.76174905       0.49068655 </v>
    <v>       0.13081479       0.06972378       0.54464532 </v>
    <v>       0.63082078       0.06972374       0.54464602 </v>
    <v>       0.13081166       0.06969810       0.05586180 </v>
    <v>       0.63081166       0.06969810       0.05586180 </v>
    <v>       0.38081166       0.56969810       0.05586180 </v>
    <v>       0.88081166       0.56969810       0.05586180 </v>
    <v>       0.38081166       0.06969810       0.20040925 </v>
    <v>       0.88081166       0.06969810       0.20040925 </v>
    <v>       0.13081166       0.56969810       0.20040925 </v>
    <v>       0.63081166       0.56969810       0.20040925 </v>
    <v>       0.13083544       0.06969901       0.34519919 </v>
    <v>       0.63083348       0.06969900       0.34519918 </v>
    <v>       0.38079663       0.56964378       0.34538943 </v>
    <v>       0.88079764       0.56964378       0.34538930 </v>
    <v>       0.38080673       0.06960098       0.49052438 </v>
    <v>       0.88079900       0.06960096       0.49052524 </v>
    <v>       0.13083152       0.56969478       0.48665870 </v>
    <v>       0.63083501       0.56969480       0.48666086 </v>
   </varray>
  </structure>
  <varray name="forces" >
   <v>       0.29567689       0.28736649      -0.00077093 </v>
   <v>       0.29568304       0.28737118      -0.00077684 </v>
   <v>      -0.61648958      -0.33914995       0.00055770 </v>
   <v>      -0.61649310      -0.33915025       0.00055741 </v>
   <v>      -0.33515207      -0.62008199      -0.00183848 </v>
   <v>      -0.33515113      -0.62008434      -0.00184162 </v>
   <v>       0.14240878       0.13788899      -0.00184928 </v>
   <v>       0.14241055       0.13788714      -0.00184021 </v>
   <v>      -0.14392273      -0.14887823      -0.00174510 </v>
   <v>      -0.14391469      -0.14886987      -0.00174761 </v>
   <v>      -0.02224135      -0.06433971      -0.00144182 </v>
   <v>      -0.02220668      -0.06436324      -0.00146487 </v>
   <v>      -0.06011161      -0.02660236       0.00077805 </v>
   <v>      -0.06013294      -0.02656567       0.00075360 </v>
   <v>       0.17813389       0.16952962      -0.00024922 </v>
   <v>       0.17818857       0.16958553      -0.00038098 </v>
   <v>       0.14804295       0.14284067      -0.00349333 </v>
   <v>       0.14825526       0.14278340      -0.00337408 </v>
   <v>       0.03978290       0.03980888       0.00139976 </v>
   <v>       0.03983973       0.03999298       0.00138804 </v>
   <v>       0.03870819       0.04452937       0.00207592 </v>
   <v>       0.03856153       0.04457874       0.00184765 </v>
   <v>      -0.39834053      -0.40629458      -0.00204504 </v>
   <v>      -0.39729726      -0.40525180      -0.00197277 </v>
   <v>       0.20827441       0.20595955      -0.00014249 </v>
   <v>       0.20790333       0.20559134      -0.00116000 </v>
   <v>       0.36634756       0.18444332       0.00147506 </v>
   <v>       0.36703736       0.18377264       0.00091303 </v>
   <v>       0.17776291       0.37241054       0.00617275 </v>
   <v>       0.17708495       0.37310632       0.00561608 </v>
   <v>       0.13203939       0.13137085      -0.00052533 </v>
   <v>       0.13207449       0.13140944      -0.00133655 </v>
   <v>       1.15750081       1.15821858       0.00349340 </v>
   <v>       1.15750446       1.15822136       0.00349585 </v>
   <v>      -0.42099766      -0.40423386       0.00241547 </v>
   <v>      -0.42099259      -0.40423035       0.00242125 </v>
   <v>      -0.17181259      -0.15468874       0.00164294 </v>
   <v>      -0.17179989      -0.15467534       0.00170024 </v>
   <v>      -0.13172855      -0.13263534       0.00342954 </v>
   <v>      -0.13164733      -0.13255285       0.00335456 </v>
   <v>      -0.03300618      -0.03687216      -0.00684389 </v>
   <v>      -0.03298212      -0.03685071      -0.00611750 </v>
   <v>      -0.24013923      -0.23570182      -0.00587001 </v>
   <v>      -0.24012554      -0.23569130      -0.00597864 </v>
   <v>      -0.26111863      -0.25966567       0.00486479 </v>
   <v>      -0.26145266      -0.26000721       0.00724817 </v>
   <v>      -0.04951837      -0.04515351      -0.00102131 </v>
   <v>      -0.05044692      -0.04607611      -0.00177336 </v>
  </varray>
  <varray name="stress" >
   <v>       0.34018648       2.25497814       0.01600593 </v>
   <v>       2.25497827       0.30582476       0.09972690 </v>
   <v>       0.01600595       0.09972704     -12.57524095 </v>
  </varray>
  <energy>
   <i name="e_fr_energy">   -317.09058063 </i>
   <i name="e_wo_entrp">   -317.06716791 </i>
   <i name="e_0_energy">     -0.04682544 </i>
  </energy>
  <time name="totalsc">  493.54  493.76</time>
 </calculation>
 <calculation>
  <scstep>
   <time name="dav">   48.63   48.64</time>
   <time name="total">   50.94   50.94</time>
   <energy>
    <i name="alphaZ">    669.22617347 </i>
    <i name="ewald">  66996.29179437 </i>
    <i name="hartreedc"> -90927.08862525 </i>
    <i name="XCdc">    632.54368726 </i>
    <i name="pawpsdc">  29778.17306857 </i>
    <i name="pawaedc"> -29245.84042059 </i>
    <i name="eentropy">     -0.04613750 </i>
    <i name="bandstr">  -1909.28067873 </i>
    <i name="atom">  23698.07519905 </i>
    <i name="e_fr_energy">   -307.94593934 </i>
    <i name="e_wo_entrp">   -307.89980185 </i>
    <i name="e_0_energy">   -307.92287060 </i>
   </energy>
  </scstep>
  <scstep>
   <time name="diag">    8.29    8.29</time>
   <time name="diis">   29.04   29.05</time>
   <time name="orth">    1.42    1.42</time>
   <time name="total">   41.06   41.06</time>
   <energy>
    <i name="e_fr_energy">   -307.98370267 </i>
    <i name="e_wo_entrp">   -307.93422464 </i>
    <i name="e_0_energy">   -307.95896365 </i>
   </energy>
  </scstep>
  <scstep>
   <time name="diag">    8.28    8.28</time>
   <time name="diis">   29.00   29.00</time>
   <time name="orth">    1.42    1.42</time>
   <time name="total">   41.00   41.01</time>
   <energy>
    <i name="e_fr_energy">   -307.95378641 </i>
    <i name="e_wo_entrp">   -307.90799869 </i>
    <i name="e_0_energy">   -307.93089255 </i>
   </energy>
  </scstep>
  <scstep>
   <time name="diag">    8.29    8.30</time>
   <time name="diis">   27.57   27.58</time>
   <time name="orth">    1.41    1.41</time>
   <time name="total">   39.58   39.60</time>
   <energy>
    <i name="e_fr_energy">   -307.95124515 </i>
    <i name="e_wo_entrp">   -307.90483454 </i>
    <i name="e_0_energy">   -307.92803985 </i>
   </energy>
  </scstep>
  <scstep>
   <time name="diag">    8.29    8.29</time>
   <time name="diis">   27.87   27.88</time>
   <time name="orth">    1.41    1.42</time>
   <time name="total">   39.87   39.89</time>
   <energy>
    <i name="e_fr_energy">   -307.95266529 </i>
    <i name="e_wo_entrp">   -307.90666357 </i>
    <i name="e_0_energy">   -307.92966443 </i>
   </energy>
  </scstep>
  <scstep>
   <time name="diag">    8.28    8.29</time>
   <time name="diis">   27.00   27.00</time>
   <time name="orth">    1.41    1.41</time>
   <time name="total">   39.00   39.02</time>
   <energy>
    <i name="e_fr_energy">   -307.95092696 </i>
    <i name="e_wo_entrp">   -307.90435943 </i>
    <i name="e_0_energy">   -307.92764320 </i>
   </energy>
  </scstep>
  <scstep>
   <time name="diag">    8.28    8.28</time>
   <time name="diis">   26.09   26.10</time>
   <time name="orth">    1.41    1.41</time>
   <time name="total">   38.09   38.10</time>
   <energy>
    <i name="e_fr_energy">   -307.95079221 </i>
    <i name="e_wo_entrp">   -307.90432915 </i>
    <i name="e_0_energy">   -307.92756068 </i>
   </energy>
  </scstep>
  <scstep>
   <time name="diag">    8.28    8.28</time>
   <time name="diis">   22.37   22.37</time>
   <time name="orth">    1.42    1.42</time>
   <time name="total">   34.37   34.38</time>
   <energy>
    <i name="e_fr_energy">   -307.95054759 </i>
    <i name="e_wo_entrp">   -307.90412851 </i>
    <i name="e_0_energy">   -307.92733805 </i>
   </energy>
  </scstep>
  <scstep>
   <time name="diag">    8.28    8.28</time>
   <time name="diis">   17.45   17.45</time>
   <time name="orth">    1.41    1.41</time>
   <time name="total">   27.51   27.53</time>
   <energy>
    <i name="alphaZ">    669.22617347 </i>
    <i name="ewald">  66996.29179437 </i>
    <i name="hartreedc"> -90923.93749436 </i>
    <i name="XCdc">    632.52543594 </i>
    <i name="pawpsdc">  29782.63931252 </i>
    <i name="pawaedc"> -29250.34258052 </i>
    <i name="eentropy">     -0.04645488 </i>
    <i name="bandstr">  -1912.38186186 </i>
    <i name="atom">  23698.07519905 </i>
    <i name="e_fr_energy">   -307.95047627 </i>
    <i name="e_wo_entrp">   -307.90402139 </i>
    <i name="e_0_energy">   -307.92724883 </i>
   </energy>
  </scstep>
  <structure>
   <crystal>
    <varray name="basis" >
     <v>       0.00000000       0.00000000       6.19967903 </v>
     <v>       4.49638446      -4.49638446       0.00000000 </v>
     <v>      15.55331725      15.55331725       0.00000000 </v>
    </varray>
    <i name="volume">    867.13291217 </i>
    <varray name="rec_basis" >
     <v>       0.00000000       0.00000000       0.16129867 </v>
     <v>       0.11120046      -0.11120046       0.00000000 </v>
     <v>       0.03214748       0.03214748       0.00000000 </v>
    </varray>
   </crystal>
   <varray name="positions" >
    <v>       0.13081166       0.56969810       0.00000000 </v>
    <v>       0.63081166       0.56969810       0.00000000 </v>
    <v>       0.38081166       0.26292810       0.05586180 </v>
    <v>       0.88081166       0.26292810       0.05586180 </v>
    <v>       0.38081166       0.87646810       0.05586180 </v>
    <v>       0.88081166       0.87646810       0.05586180 </v>
    <v>       0.13081166       0.56969810       0.11172361 </v>
    <v>       0.63081166       0.56969810       0.11172361 </v>
    <v>       0.13081166       0.06969810       0.14454744 </v>
    <v>       0.63081166       0.06969810       0.14454744 </v>
    <v>       0.38081166       0.37646810       0.20040925 </v>
    <v>       0.88081166       0.37646810       0.20040925 </v>
    <v>       0.38081166       0.76292810       0.20040925 </v>
    <v>       0.88081166       0.76292810       0.20040925 </v>
    <v>       0.13081166       0.06969810       0.25627105 </v>
    <v>       0.63081166       0.06969810       0.25627105 </v>
    <v>       0.13080007       0.56973834       0.28891409 </v>
    <v>       0.63079947       0.56973876       0.28891473 </v>
    <v>       0.38080739       0.26273723       0.34507896 </v>
    <v>       0.88080937       0.26273599       0.34507924 </v>
    <v>       0.38079681       0.87669271       0.34508243 </v>
    <v>       0.88079822       0.87669341       0.34508255 </v>
    <v>       0.13080043       0.56973063       0.40080687 </v>
    <v>       0.63080088       0.56973061       0.40080672 </v>
    <v>       0.13081097       0.06972508       0.43345791 </v>
    <v>       0.63081598       0.06972506       0.43345829 </v>
    <v>       0.38079058       0.37809350       0.49107137 </v>
    <v>       0.88079323       0.37809024       0.49107119 </v>
    <v>       0.38083132       0.76130176       0.49106759 </v>
    <v>       0.88083396       0.76130502       0.49106743 </v>
    <v>       0.13081377       0.06972727       0.54471033 </v>
    <v>       0.63081828       0.06972722       0.54471113 </v>
    <v>       0.13081166       0.06969810       0.05586180 </v>
    <v>       0.63081166       0.06969810       0.05586180 </v>
    <v>       0.38081166       0.56969810       0.05586180 </v>
    <v>       0.88081166       0.56969810       0.05586180 </v>
    <v>       0.38081166       0.06969810       0.20040925 </v>
    <v>       0.88081166       0.06969810       0.20040925 </v>
    <v>       0.13081166       0.56969810       0.20040925 </v>
    <v>       0.63081166       0.56969810       0.20040925 </v>
    <v>       0.13082057       0.06970573       0.34518663 </v>
    <v>       0.63082024       0.06970572       0.34518664 </v>
    <v>       0.38078065       0.56963121       0.34519275 </v>
    <v>       0.88078147       0.56963122       0.34519262 </v>
    <v>       0.38081840       0.06958963       0.49035896 </v>
    <v>       0.88081589       0.06958962       0.49035957 </v>
    <v>       0.13083079       0.56968699       0.48635223 </v>
    <v>       0.63083272       0.56968700       0.48635367 </v>
   </varray>
  </structure>
  <varray name="forces" >
   <v>       0.29758575       0.28969233      -0.00093878 </v>
   <v>       0.29758937       0.28969584      -0.00094392 </v>
   <v>      -0.61385943      -0.33910099       0.00037466 </v>
   <v>      -0.61385921      -0.33910015       0.00037273 </v>
   <v>      -0.33552214      -0.61703392      -0.00201895 </v>
   <v>      -0.33552197      -0.61703304      -0.00202039 </v>
   <v>       0.14028402       0.13623781      -0.00198733 </v>
   <v>       0.14028209       0.13623960      -0.00198538 </v>
   <v>      -0.14688010      -0.15142523      -0.00201191 </v>
   <v>      -0.14688029      -0.15142178      -0.00201227 </v>
   <v>      -0.01760180      -0.06087622      -0.00165031 </v>
   <v>      -0.01758571      -0.06088477      -0.00166160 </v>
   <v>      -0.05711501      -0.02166300       0.00056823 </v>
   <v>      -0.05712386      -0.02164594       0.00056021 </v>
   <v>       0.17773659       0.16943877      -0.00073429 </v>
   <v>       0.17777350       0.16946640      -0.00077954 </v>
   <v>       0.05871462       0.05592454      -0.00338586 </v>
   <v>       0.05847178       0.05569704      -0.00332461 </v>
   <v>       0.03907079       0.03478788      -0.00089910 </v>
   <v>       0.03915983       0.03458754      -0.00116541 </v>
   <v>       0.03330518       0.04327062      -0.00032573 </v>
   <v>       0.03317818       0.04332729      -0.00051704 </v>
   <v>      -0.32938456      -0.33464224      -0.00238889 </v>
   <v>      -0.32890939      -0.33416084      -0.00239128 </v>
   <v>       0.11396099       0.11227776       0.00095635 </v>
   <v>       0.11380852       0.11211589       0.00029670 </v>
   <v>       0.29013897       0.16213463       0.00168957 </v>
   <v>       0.29056381       0.16173455       0.00129390 </v>
   <v>       0.15613543       0.29236671       0.00386675 </v>
   <v>       0.15572592       0.29278761       0.00347757 </v>
   <v>       0.06261483       0.06270986       0.00036292 </v>
   <v>       0.06268087       0.06274832      -0.00015232 </v>
[...]
       <r>   -19.5301     0.0000     0.0000 </r>
       <r>   -19.4182     0.0000     0.0000 </r>
       <r>   -19.3063     0.0000     0.0000 </r>
       <r>   -19.1944     0.0000     0.0000 </r>
       <r>   -19.0825     0.0123     0.0014 </r>
       <r>   -18.9707     0.5452     0.0624 </r>
       <r>   -18.8588     2.0242     0.2888 </r>
       <r>   -18.7469     2.8815     0.6112 </r>
       <r>   -18.6350     3.3778     0.9892 </r>
       <r>   -18.5231     5.5338     1.6083 </r>
       <r>   -18.4112     5.0985     2.1787 </r>
       <r>   -18.2994    11.5779     3.4741 </r>
       <r>   -18.1875    10.5016     4.6491 </r>
       <r>   -18.0756    14.8289     6.3082 </r>
       <r>   -17.9637    17.5777     8.2748 </r>
       <r>   -17.8518    19.8157    10.4919 </r>
       <r>   -17.7399    24.7638    13.2626 </r>
       <r>   -17.6281    23.9062    15.9373 </r>
       <r>   -17.5162    31.9269    19.5094 </r>
       <r>   -17.4043    33.3425    23.2399 </r>
       <r>   -17.2924    27.2554    26.2893 </r>
       <r>   -17.1805    12.0446    27.6369 </r>
       <r>   -17.0686     3.0310    27.9760 </r>
       <r>   -16.9568     0.2143    28.0000 </r>
       <r>   -16.8449     0.0001    28.0000 </r>
       <r>   -16.7330     0.0000    28.0000 </r>
       <r>   -16.6211     0.0000    28.0000 </r>
       <r>   -16.5092     0.0000    28.0000 </r>
       <r>   -16.3973     0.0017    28.0002 </r>
       <r>   -16.2855     3.4096    28.3817 </r>
       <r>   -16.1736    14.4377    29.9970 </r>
       <r>   -16.0617    15.9717    31.7840 </r>
       <r>   -15.9498     1.9289    31.9998 </r>
       <r>   -15.8379     0.0018    32.0000 </r>
       <r>   -15.7260     0.0000    32.0000 </r>
       <r>   -15.6142     0.0000    32.0000 </r>
       <r>   -15.5023     0.0000    32.0000 </r>
       <r>   -15.3904     0.0000    32.0000 </r>
       <r>   -15.2785     0.0000    32.0000 </r>
       <r>   -15.1666     0.0000    32.0000 </r>
       <r>   -15.0547     0.0000    32.0000 </r>
       <r>   -14.9429     0.0000    32.0000 </r>
       <r>   -14.8310     0.0000    32.0000 </r>
       <r>   -14.7191     0.0000    32.0000 </r>
       <r>   -14.6072     0.0000    32.0000 </r>
       <r>   -14.4953     0.0000    32.0000 </r>
       <r>   -14.3834     0.0000    32.0000 </r>
       <r>   -14.2715     0.0000    32.0000 </r>
       <r>   -14.1597     0.0000    32.0000 </r>
       <r>   -14.0478     0.0000    32.0000 </r>
       <r>   -13.9359     0.0000    32.0000 </r>
       <r>   -13.8240     0.0000    32.0000 </r>
       <r>   -13.7121     0.0000    32.0000 </r>
       <r>   -13.6002     0.0000    32.0000 </r>
       <r>   -13.4884     0.0000    32.0000 </r>
       <r>   -13.3765     0.0000    32.0000 </r>
       <r>   -13.2646     0.0000    32.0000 </r>
       <r>   -13.1527     0.0000    32.0000 </r>
       <r>   -13.0408     0.0000    32.0000 </r>
       <r>   -12.9289     0.0000    32.0000 </r>
       <r>   -12.8171     0.0000    32.0000 </r>
       <r>   -12.7052     0.0000    32.0000 </r>
       <r>   -12.5933     0.0000    32.0000 </r>
       <r>   -12.4814     0.0000    32.0000 </r>
       <r>   -12.3695     0.0000    32.0000 </r>
       <r>   -12.2576     0.0000    32.0000 </r>
       <r>   -12.1458     0.0000    32.0000 </r>
       <r>   -12.0339     0.0000    32.0000 </r>
       <r>   -11.9220     0.0000    32.0000 </r>
       <r>   -11.8101     0.0000    32.0000 </r>
       <r>   -11.6982     0.0000    32.0000 </r>
       <r>   -11.5863     0.0000    32.0000 </r>
       <r>   -11.4745     0.0000    32.0000 </r>
       <r>   -11.3626     0.0000    32.0000 </r>
       <r>   -11.2507     0.0000    32.0000 </r>
       <r>   -11.1388     0.0000    32.0000 </r>
       <r>   -11.0269     0.0000    32.0000 </r>
       <r>   -10.9150     0.0000    32.0000 </r>
       <r>   -10.8032     0.0000    32.0000 </r>
       <r>   -10.6913     0.0000    32.0000 </r>
       <r>   -10.5794     0.0000    32.0000 </r>
       <r>   -10.4675     0.0000    32.0000 </r>
       <r>   -10.3556     0.0000    32.0000 </r>
       <r>   -10.2437     0.0000    32.0000 </r>
       <r>   -10.1319     0.0000    32.0000 </r>
       <r>   -10.0200     0.0000    32.0000 </r>
       <r>    -9.9081     0.0000    32.0000 </r>
       <r>    -9.7962     0.0000    32.0000 </r>
       <r>    -9.6843     0.0000    32.0000 </r>
       <r>    -9.5724     0.0000    32.0000 </r>
       <r>    -9.4605     0.0000    32.0000 </r>
       <r>    -9.3487     0.0000    32.0000 </r>
       <r>    -9.2368     0.0000    32.0000 </r>
       <r>    -9.1249     0.0000    32.0000 </r>
       <r>    -9.0130     0.0000    32.0000 </r>
       <r>    -8.9011     0.0000    32.0000 </r>
       <r>    -8.7892     0.0000    32.0000 </r>
       <r>    -8.6774     0.0000    32.0000 </r>
       <r>    -8.5655     0.0000    32.0000 </r>
       <r>    -8.4536     0.0000    32.0000 </r>
       <r>    -8.3417     0.0000    32.0000 </r>
       <r>    -8.2298     0.0000    32.0000 </r>
       <r>    -8.1179     0.0000    32.0000 </r>
       <r>    -8.0061     0.0000    32.0000 </r>
       <r>    -7.8942     0.0000    32.0000 </r>
       <r>    -7.7823     0.0000    32.0000 </r>
       <r>    -7.6704     0.0000    32.0000 </r>
       <r>    -7.5585     0.0091    32.0010 </r>
       <r>    -7.4466     0.8598    32.0972 </r>
       <r>    -7.3348     1.2879    32.2413 </r>
       <r>    -7.2229     4.3751    32.7308 </r>
       <r>    -7.1110     3.8030    33.1563 </r>
       <r>    -6.9991     6.7819    33.9151 </r>
       <r>    -6.8872     7.7734    34.7848 </r>
       <r>    -6.7753     8.4445    35.7296 </r>
       <r>    -6.6635     5.5562    36.3512 </r>
       <r>    -6.5516     5.0040    36.9111 </r>
       <r>    -6.4397    10.3115    38.0648 </r>
       <r>    -6.3278    12.0100    39.4085 </r>
       <r>    -6.2159    16.3158    41.2340 </r>
       <r>    -6.1040    28.5279    44.4258 </r>
       <r>    -5.9922    31.6460    47.9665 </r>
       <r>    -5.8803    31.2626    51.4642 </r>
       <r>    -5.7684    32.5834    55.1098 </r>
       <r>    -5.6565    20.6315    57.4181 </r>
       <r>    -5.5446    15.3785    59.1387 </r>
       <r>    -5.4327    11.9535    60.4761 </r>
       <r>    -5.3209    14.4645    62.0945 </r>
       <r>    -5.2090     9.8185    63.1930 </r>
       <r>    -5.0971    13.1597    64.6653 </r>
       <r>    -4.9852    10.6458    65.8564 </r>
       <r>    -4.8733    10.3506    67.0145 </r>
       <r>    -4.7614     7.4318    67.8460 </r>
       <r>    -4.6495    15.2538    69.5526 </r>
       <r>    -4.5377    11.6551    70.8567 </r>
       <r>    -4.4258    14.5750    72.4874 </r>
       <r>    -4.3139    16.1150    74.2904 </r>
       <r>    -4.2020    13.8313    75.8379 </r>
       <r>    -4.0901    12.7666    77.2662 </r>
       <r>    -3.9782    18.1461    79.2965 </r>
       <r>    -3.8664    17.6447    81.2707 </r>
       <r>    -3.7545    21.2795    83.6515 </r>
       <r>    -3.6426    23.5322    86.2844 </r>
       <r>    -3.5307    14.1003    87.8620 </r>
       <r>    -3.4188    24.4348    90.5958 </r>
       <r>    -3.3069    25.1250    93.4069 </r>
       <r>    -3.1951    25.4195    96.2509 </r>
       <r>    -3.0832    19.4881    98.4313 </r>
       <r>    -2.9713    17.1669   100.3520 </r>
       <r>    -2.8594    19.2398   102.5046 </r>
       <r>    -2.7475    17.0124   104.4080 </r>
       <r>    -2.6356    13.9576   105.9697 </r>
       <r>    -2.5238    14.2992   107.5695 </r>
       <r>    -2.4119    13.1307   109.0386 </r>
       <r>    -2.3000    10.5551   110.2196 </r>
       <r>    -2.1881    17.7093   112.2010 </r>
       <r>    -2.0762    11.0732   113.4399 </r>
       <r>    -1.9643    20.2172   115.7018 </r>
       <r>    -1.8525    13.4344   117.2049 </r>
       <r>    -1.7406    10.1731   118.3431 </r>
       <r>    -1.6287    12.5441   119.7466 </r>
       <r>    -1.5168    19.1523   121.8894 </r>
       <r>    -1.4049    21.9160   124.3415 </r>
       <r>    -1.2930    17.5378   126.3037 </r>
       <r>    -1.1812    11.5017   127.5905 </r>
       <r>    -1.0693     9.1331   128.6124 </r>
       <r>    -0.9574    12.7253   130.0361 </r>
       <r>    -0.8455    18.4771   132.1034 </r>
       <r>    -0.7336    24.9775   134.8980 </r>
       <r>    -0.6217    26.9468   137.9129 </r>
       <r>    -0.5099    33.7862   141.6930 </r>
       <r>    -0.3980    25.2731   144.5207 </r>
       <r>    -0.2861    22.6669   147.0567 </r>
       <r>    -0.1742    18.8789   149.1690 </r>
       <r>    -0.0623    17.0644   151.0782 </r>
       <r>     0.0496    15.8231   152.8485 </r>
       <r>     0.1614    17.1500   154.7673 </r>
       <r>     0.2733    15.1825   156.4660 </r>
       <r>     0.3852    12.5350   157.8685 </r>
       <r>     0.4971    11.8526   159.1946 </r>
       <r>     0.6090    15.2553   160.9014 </r>
       <r>     0.7209    16.9468   162.7975 </r>
       <r>     0.8328    19.2371   164.9498 </r>
       <r>     0.9446    19.5902   167.1416 </r>
       <r>     1.0565    18.1675   169.1743 </r>
       <r>     1.1684    19.4062   171.3455 </r>
       <r>     1.2803    13.8375   172.8937 </r>
       <r>     1.3922    17.2914   174.8283 </r>
       <r>     1.5041    10.6320   176.0179 </r>
       <r>     1.6159    11.5544   177.3106 </r>
       <r>     1.7278    11.0854   178.5509 </r>
       <r>     1.8397     6.8187   179.3138 </r>
       <r>     1.9516     5.2488   179.9011 </r>
       <r>     2.0635     5.9148   180.5628 </r>
       <r>     2.1754     4.4349   181.0590 </r>
       <r>     2.2872     5.8792   181.7168 </r>
       <r>     2.3991     5.3626   182.3168 </r>
       <r>     2.5110     9.5166   183.3816 </r>
       <r>     2.6229     8.3680   184.3178 </r>
       <r>     2.7348     3.7215   184.7342 </r>
       <r>     2.8467     4.9272   185.2855 </r>
       <r>     2.9585     7.3777   186.1109 </r>
       <r>     3.0704     7.2683   186.9241 </r>
       <r>     3.1823     6.3093   187.6300 </r>
       <r>     3.2942     7.5329   188.4728 </r>
       <r>     3.4061    16.2078   190.2862 </r>
       <r>     3.5180     5.9487   190.9518 </r>
       <r>     3.6298     9.3863   192.0020 </r>
       <r>     3.7417    17.9807   194.0137 </r>
       <r>     3.8536     7.7985   194.8862 </r>
       <r>     3.9655     7.5083   195.7263 </r>
       <r>     4.0774     8.4390   196.6705 </r>
       <r>     4.1893    12.4532   198.0638 </r>
       <r>     4.3011    10.8289   199.2754 </r>
       <r>     4.4130    15.9050   201.0549 </r>
       <r>     4.5249    17.6018   203.0242 </r>
       <r>     4.6368    15.6337   204.7734 </r>
       <r>     4.7487     6.8652   205.5415 </r>
       <r>     4.8606    11.1778   206.7921 </r>
       <r>     4.9724     4.2722   207.2701 </r>
       <r>     5.0843     1.8554   207.4777 </r>
       <r>     5.1962     3.1810   207.8336 </r>
       <r>     5.3081     1.0376   207.9497 </r>
       <r>     5.4200     0.4439   207.9993 </r>
       <r>     5.5319     0.0058   208.0000 </r>
       <r>     5.6438     0.0000   208.0000 </r>
       <r>     5.7556     0.0000   208.0000 </r>
       <r>     5.8675     0.0000   208.0000 </r>
       <r>     5.9794     0.0026   208.0003 </r>
       <r>     6.0913     0.3967   208.0447 </r>
       <r>     6.2032     0.5407   208.1052 </r>
       <r>     6.3151     1.5230   208.2756 </r>
       <r>     6.4269     1.1317   208.4022 </r>
       <r>     6.5388     3.1446   208.7540 </r>
       <r>     6.6507     1.4697   208.9184 </r>
       <r>     6.7626     1.3537   209.0699 </r>
       <r>     6.8745     2.1825   209.3141 </r>
       <r>     6.9864     0.7564   209.3987 </r>
       <r>     7.0982     1.3630   209.5512 </r>
       <r>     7.2101     2.8350   209.8684 </r>
       <r>     7.3220     0.8221   209.9604 </r>
       <r>     7.4339     1.2484   210.1001 </r>
       <r>     7.5458     1.6944   210.2896 </r>
       <r>     7.6577     1.3192   210.4372 </r>
       <r>     7.7695     0.6807   210.5134 </r>
       <r>     7.8814     2.6336   210.8080 </r>
       <r>     7.9933     1.3735   210.9617 </r>
       <r>     8.1052     2.7709   211.2717 </r>
       <r>     8.2171     5.5409   211.8917 </r>
       <r>     8.3290     2.3177   212.1510 </r>
       <r>     8.4408     1.9785   212.3723 </r>
       <r>     8.5527     3.3095   212.7426 </r>
       <r>     8.6646     3.7864   213.1663 </r>
       <r>     8.7765     3.7332   213.5839 </r>
       <r>     8.8884     4.2496   214.0594 </r>
       <r>     9.0003     5.8373   214.7125 </r>
       <r>     9.1121     5.5244   215.3306 </r>
       <r>     9.2240     1.7697   215.5286 </r>
       <r>     9.3359     3.3152   215.8995 </r>
       <r>     9.4478     4.0818   216.3562 </r>
       <r>     9.5597     5.2454   216.9431 </r>
       <r>     9.6716     2.5346   217.2267 </r>
       <r>     9.7834     2.7966   217.5395 </r>
       <r>     9.8953     5.6300   218.1694 </r>
       <r>    10.0072     6.4288   218.8887 </r>
       <r>    10.1191     9.1306   219.9103 </r>
       <r>    10.2310     4.6328   220.4286 </r>
       <r>    10.3429     7.0205   221.2141 </r>
       <r>    10.4548     8.8922   222.2090 </r>
       <r>    10.5666     6.1853   222.9010 </r>
       <r>    10.6785     7.0002   223.6842 </r>
       <r>    10.7904     8.5784   224.6440 </r>
       <r>    10.9023     9.1959   225.6729 </r>
       <r>    11.0142     6.5554   226.4063 </r>
       <r>    11.1261     5.4699   227.0183 </r>
       <r>    11.2379     5.0283   227.5809 </r>
       <r>    11.3498     1.2164   227.7170 </r>
       <r>    11.4617     0.9341   227.8215 </r>
       <r>    11.5736     1.5745   227.9977 </r>
       <r>    11.6855     0.0207   228.0000 </r>
       <r>    11.7974     0.0000   228.0000 </r>
       <r>    11.9092     0.0000   228.0000 </r>
       <r>    12.0211     0.0000   228.0000 </r>
       <r>    12.1330     0.0000   228.0000 </r>
       <r>    12.2449     0.0000   228.0000 </r>
       <r>    12.3568     0.0000   228.0000 </r>
       <r>    12.4687     0.0000   228.0000 </r>
       <r>    12.5805     0.0000   228.0000 </r>
       <r>    12.6924     0.0000   228.0000 </r>
       <r>    12.8043     0.0000   228.0000 </r>
       <r>    12.9162     0.0000   228.0000 </r>
       <r>    13.0281     0.0000   228.0000 </r>
      </set>
     </set>
    </array>
   </total>
  </dos>
 </calculation>
 <structure name="finalpos" >
  <crystal>
   <varray name="basis" >
    <v>       0.00000000       0.00000000       6.19967903 </v>
    <v>       4.49638446      -4.49638446       0.00000000 </v>
    <v>      15.55331725      15.55331725       0.00000000 </v>
   </varray>
   <i name="volume">    867.13291217 </i>
   <varray name="rec_basis" >
    <v>       0.00000000       0.00000000       0.16129867 </v>
    <v>       0.11120046      -0.11120046       0.00000000 </v>
    <v>       0.03214748       0.03214748       0.00000000 </v>
   </varray>
  </crystal>
  <varray name="positions" >
   <v>       0.13081166       0.56969810       0.00000000 </v>
   <v>       0.63081166       0.56969810       0.00000000 </v>
   <v>       0.38081166       0.26292810       0.05586180 </v>
   <v>       0.88081166       0.26292810       0.05586180 </v>
   <v>       0.38081166       0.87646810       0.05586180 </v>
   <v>       0.88081166       0.87646810       0.05586180 </v>
   <v>       0.13081166       0.56969810       0.11172361 </v>
   <v>       0.63081166       0.56969810       0.11172361 </v>
   <v>       0.13081166       0.06969810       0.14454744 </v>
   <v>       0.63081166       0.06969810       0.14454744 </v>
   <v>       0.38081166       0.37646810       0.20040925 </v>
   <v>       0.88081166       0.37646810       0.20040925 </v>
   <v>       0.38081166       0.76292810       0.20040925 </v>
   <v>       0.88081166       0.76292810       0.20040925 </v>
   <v>       0.13081166       0.06969810       0.25627105 </v>
   <v>       0.63081166       0.06969810       0.25627105 </v>
   <v>       0.13067594       0.56968019       0.28862831 </v>
   <v>       0.63067562       0.56967891       0.28862846 </v>
   <v>       0.38073174       0.26272237       0.34546261 </v>
   <v>       0.88073199       0.26272311       0.34546201 </v>
   <v>       0.38069099       0.87661637       0.34547378 </v>
   <v>       0.88069198       0.87661675       0.34547384 </v>
   <v>       0.13067157       0.57018043       0.39991070 </v>
   <v>       0.63067184       0.57018073       0.39991022 </v>
   <v>       0.13092933       0.06983111       0.43487497 </v>
   <v>       0.63092999       0.06983095       0.43487416 </v>
   <v>       0.38086977       0.37952359       0.49437893 </v>
   <v>       0.88086718       0.37952438       0.49437884 </v>
   <v>       0.38083132       0.75970490       0.49438985 </v>
   <v>       0.88082955       0.75970349       0.49438986 </v>
   <v>       0.13094225       0.06970568       0.54642257 </v>
   <v>       0.63094226       0.06970575       0.54642259 </v>
   <v>       0.13081166       0.06969810       0.05586180 </v>
   <v>       0.63081166       0.06969810       0.05586180 </v>
   <v>       0.38081166       0.56969810       0.05586180 </v>
   <v>       0.88081166       0.56969810       0.05586180 </v>
   <v>       0.38081166       0.06969810       0.20040925 </v>
   <v>       0.88081166       0.06969810       0.20040925 </v>
   <v>       0.13081166       0.56969810       0.20040925 </v>
   <v>       0.63081166       0.56969810       0.20040925 </v>
   <v>       0.13074559       0.06965236       0.34580249 </v>
   <v>       0.63074464       0.06965350       0.34580319 </v>
   <v>       0.38068170       0.56958469       0.34430746 </v>
   <v>       0.88068211       0.56958537       0.34430730 </v>
   <v>       0.38094513       0.06953793       0.49195293 </v>
   <v>       0.88094447       0.06953708       0.49195276 </v>
   <v>       0.13085753       0.56956160       0.48665353 </v>
   <v>       0.63085702       0.56956154       0.48665273 </v>
  </varray>
  <varray name="selective"  type="logical" >
   <v type="logical" >  F  F  F </v>
   <v type="logical" >  F  F  F </v>
   <v type="logical" >  F  F  F </v>
   <v type="logical" >  F  F  F </v>
   <v type="logical" >  F  F  F </v>
   <v type="logical" >  F  F  F </v>
   <v type="logical" >  F  F  F </v>
   <v type="logical" >  F  F  F </v>
   <v type="logical" >  F  F  F </v>
   <v type="logical" >  F  F  F </v>
   <v type="logical" >  F  F  F </v>
   <v type="logical" >  F  F  F </v>
   <v type="logical" >  F  F  F </v>
   <v type="logical" >  F  F  F </v>
   <v type="logical" >  F  F  F </v>
   <v type="logical" >  F  F  F </v>
   <v type="logical" >  T  T  T </v>
   <v type="logical" >  T  T  T </v>
   <v type="logical" >  T  T  T </v>
   <v type="logical" >  T  T  T </v>
   <v type="logical" >  T  T  T </v>
   <v type="logical" >  T  T  T </v>
   <v type="logical" >  T  T  T </v>
   <v type="logical" >  T  T  T </v>
   <v type="logical" >  T  T  T </v>
   <v type="logical" >  T  T  T </v>
   <v type="logical" >  T  T  T </v>
   <v type="logical" >  T  T  T </v>
   <v type="logical" >  T  T  T </v>
   <v type="logical" >  T  T  T </v>
   <v type="logical" >  T  T  T </v>
   <v type="logical" >  T  T  T </v>
   <v type="logical" >  F  F  F </v>
   <v type="logical" >  F  F  F </v>
   <v type="logical" >  F  F  F </v>
   <v type="logical" >  F  F  F </v>
   <v type="logical" >  F  F  F </v>
   <v type="logical" >  F  F  F </v>
   <v type="logical" >  F  F  F </v>
   <v type="logical" >  F  F  F </v>
   <v type="logical" >  T  T  T </v>
   <v type="logical" >  T  T  T </v>
   <v type="logical" >  T  T  T </v>
   <v type="logical" >  T  T  T </v>
   <v type="logical" >  T  T  T </v>
   <v type="logical" >  T  T  T </v>
   <v type="logical" >  T  T  T </v>
   <v type="logical" >  T  T  T </v>
  </varray>
  <nose>
   <v>      -3.00000000       0.00000000       0.00010000       0.00010000 </v>
  </nose>
 </structure>
</modeling>
