RhO2_suf110_2x1x4_2fix                  
           1
     0.000000    0.000000    6.199679
     4.496384   -4.496384    0.000000
    15.553317   15.553317    0.000000
   O    Rh
  32  16
Direct configuration=     1
   0.13081166  0.56969810  0.00000000
   0.63081166  0.56969810  0.00000000
   0.38081166  0.26292810  0.05586180
   0.88081166  0.26292810  0.05586180
   0.38081166  0.87646810  0.05586180
   0.88081166  0.87646810  0.05586180
   0.13081166  0.56969810  0.11172361
   0.63081166  0.56969810  0.11172361
   0.13081166  0.06969810  0.14454744
   0.63081166  0.06969810  0.14454744
   0.38081166  0.37646810  0.20040925
   0.88081166  0.37646810  0.20040925
   0.38081166  0.76292810  0.20040925
   0.88081166  0.76292810  0.20040925
   0.13081166  0.06969810  0.25627105
   0.63081166  0.06969810  0.25627105
   0.13081166  0.56969810  0.28909489
   0.63081166  0.56969810  0.28909489
   0.38081166  0.26292810  0.34495669
   0.88081166  0.26292810  0.34495669
   0.38081166  0.87646810  0.34495669
   0.88081166  0.87646810  0.34495669
   0.13081166  0.56969810  0.40081849
   0.63081166  0.56969810  0.40081849
   0.13081166  0.06969810  0.43364233
   0.63081166  0.06969810  0.43364233
   0.38081166  0.37646810  0.48950413
   0.88081166  0.37646810  0.48950413
   0.38081166  0.76292810  0.48950413
   0.88081166  0.76292810  0.48950413
   0.13081166  0.06969810  0.54536594
   0.63081166  0.06969810  0.54536594
   0.13081166  0.06969810  0.05586180
   0.63081166  0.06969810  0.05586180
   0.38081166  0.56969810  0.05586180
   0.88081166  0.56969810  0.05586180
   0.38081166  0.06969810  0.20040925
   0.88081166  0.06969810  0.20040925
   0.13081166  0.56969810  0.20040925
   0.63081166  0.56969810  0.20040925
   0.13081166  0.06969810  0.34495669
   0.63081166  0.06969810  0.34495669
   0.38081166  0.56969810  0.34495669
   0.88081166  0.56969810  0.34495669
   0.38081166  0.06969810  0.48950413
   0.88081166  0.06969810  0.48950413
   0.13081166  0.56969810  0.48950413
   0.63081166  0.56969810  0.48950413
Direct configuration=     2
   0.13081166  0.56969810  0.00000000
   0.63081166  0.56969810  0.00000000
   0.38081166  0.26292810  0.05586180
   0.88081166  0.26292810  0.05586180
   0.38081166  0.87646810  0.05586180
   0.88081166  0.87646810  0.05586180
   0.13081166  0.56969810  0.11172361
   0.63081166  0.56969810  0.11172361
   0.13081166  0.06969810  0.14454744
   0.63081166  0.06969810  0.14454744
   0.38081166  0.37646810  0.20040925
   0.88081166  0.37646810  0.20040925
   0.38081166  0.76292810  0.20040925
   0.88081166  0.76292810  0.20040925
   0.13081166  0.06969810  0.25627105
   0.63081166  0.06969810  0.25627105
   0.13081100  0.56970527  0.28902039
   0.63081079  0.56970526  0.28902052
   0.38080988  0.26288438  0.34497565
   0.88081035  0.26288414  0.34497569
   0.38080707  0.87652185  0.34497603
   0.88080753  0.87652208  0.34497607
   0.13081026  0.56970242  0.40090732
   0.63081032  0.56970242  0.40090705
   0.13081158  0.06970337  0.43355298
   0.63081331  0.06970336  0.43355315
   0.38080599  0.37676894  0.48980057
   0.88080692  0.37676766  0.48980053
   0.38081264  0.76263205  0.48979978
   0.88081357  0.76263333  0.48979974
   0.13081244  0.06970452  0.54518578
   0.63081394  0.06970451  0.54518596
   0.13081166  0.06969810  0.05586180
   0.63081166  0.06969810  0.05586180
   0.38081166  0.56969810  0.05586180
   0.88081166  0.56969810  0.05586180
   0.38081166  0.06969810  0.20040925
   0.88081166  0.06969810  0.20040925
   0.13081166  0.56969810  0.20040925
   0.63081166  0.56969810  0.20040925
   0.13081761  0.06969832  0.34501732
   0.63081712  0.06969832  0.34501731
   0.38080790  0.56968452  0.34506488
   0.88080816  0.56968452  0.34506484
   0.38081043  0.06967382  0.48975919
   0.88080850  0.06967381  0.48975941
   0.13081663  0.56969727  0.48879277
   0.63081750  0.56969727  0.48879331
Direct configuration=     3
   0.13081166  0.56969810  0.00000000
   0.63081166  0.56969810  0.00000000
   0.38081166  0.26292810  0.05586180
   0.88081166  0.26292810  0.05586180
   0.38081166  0.87646810  0.05586180
   0.88081166  0.87646810  0.05586180
   0.13081166  0.56969810  0.11172361
   0.63081166  0.56969810  0.11172361
   0.13081166  0.06969810  0.14454744
   0.63081166  0.06969810  0.14454744
   0.38081166  0.37646810  0.20040925
   0.88081166  0.37646810  0.20040925
   0.38081166  0.76292810  0.20040925
   0.88081166  0.76292810  0.20040925
   0.13081166  0.06969810  0.25627105
   0.63081166  0.06969810  0.25627105
   0.13080901  0.56972679  0.28879691
   0.63080819  0.56972675  0.28879742
   0.38080455  0.26275323  0.34503254
   0.88080640  0.26275228  0.34503269
   0.38079331  0.87668310  0.34503407
   0.88079513  0.87668405  0.34503422
   0.13080604  0.56971540  0.40117379
   0.63080629  0.56971538  0.40117271
   0.13081135  0.06971918  0.43328492
   0.63081826  0.06971917  0.43328561
   0.38078898  0.37767149  0.49068989
   0.88079269  0.37766636  0.49068972
   0.38081559  0.76174390  0.49068670
   0.88081928  0.76174905  0.49068655
   0.13081479  0.06972378  0.54464532
   0.63082078  0.06972374  0.54464602
   0.13081166  0.06969810  0.05586180
   0.63081166  0.06969810  0.05586180
   0.38081166  0.56969810  0.05586180
   0.88081166  0.56969810  0.05586180
   0.38081166  0.06969810  0.20040925
   0.88081166  0.06969810  0.20040925
   0.13081166  0.56969810  0.20040925
   0.63081166  0.56969810  0.20040925
   0.13083544  0.06969901  0.34519919
   0.63083348  0.06969900  0.34519918
   0.38079663  0.56964378  0.34538943
   0.88079764  0.56964378  0.34538930
   0.38080673  0.06960098  0.49052438
   0.88079900  0.06960096  0.49052524
   0.13083152  0.56969478  0.48665870
   0.63083501  0.56969480  0.48666086
Direct configuration=     4
   0.13081166  0.56969810  0.00000000
   0.63081166  0.56969810  0.00000000
   0.38081166  0.26292810  0.05586180
   0.88081166  0.26292810  0.05586180
   0.38081166  0.87646810  0.05586180
   0.88081166  0.87646810  0.05586180
   0.13081166  0.56969810  0.11172361
   0.63081166  0.56969810  0.11172361
   0.13081166  0.06969810  0.14454744
   0.63081166  0.06969810  0.14454744
   0.38081166  0.37646810  0.20040925
   0.88081166  0.37646810  0.20040925
   0.38081166  0.76292810  0.20040925
   0.88081166  0.76292810  0.20040925
   0.13081166  0.06969810  0.25627105
   0.63081166  0.06969810  0.25627105
   0.13080007  0.56973834  0.28891409
   0.63079947  0.56973876  0.28891473
   0.38080739  0.26273723  0.34507896
   0.88080937  0.26273599  0.34507924
   0.38079681  0.87669271  0.34508243
   0.88079822  0.87669341  0.34508255
   0.13080043  0.56973063  0.40080687
   0.63080088  0.56973061  0.40080672
   0.13081097  0.06972508  0.43345791
   0.63081598  0.06972506  0.43345829
   0.38079058  0.37809350  0.49107137
   0.88079323  0.37809024  0.49107119
   0.38083132  0.76130176  0.49106759
   0.88083396  0.76130502  0.49106743
   0.13081377  0.06972727  0.54471033
   0.63081828  0.06972722  0.54471113
   0.13081166  0.06969810  0.05586180
   0.63081166  0.06969810  0.05586180
   0.38081166  0.56969810  0.05586180
   0.88081166  0.56969810  0.05586180
   0.38081166  0.06969810  0.20040925
   0.88081166  0.06969810  0.20040925
   0.13081166  0.56969810  0.20040925
   0.63081166  0.56969810  0.20040925
   0.13082057  0.06970573  0.34518663
   0.63082024  0.06970572  0.34518664
   0.38078065  0.56963121  0.34519275
   0.88078147  0.56963122  0.34519262
   0.38081840  0.06958963  0.49035896
   0.88081589  0.06958962  0.49035957
   0.13083079  0.56968699  0.48635223
   0.63083272  0.56968700  0.48635367
Direct configuration=     5
   0.13081166  0.56969810  0.00000000
   0.63081166  0.56969810  0.00000000
   0.38081166  0.26292810  0.05586180
   0.88081166  0.26292810  0.05586180
   0.38081166  0.87646810  0.05586180
   0.88081166  0.87646810  0.05586180
   0.13081166  0.56969810  0.11172361
   0.63081166  0.56969810  0.11172361
   0.13081166  0.06969810  0.14454744
   0.63081166  0.06969810  0.14454744
   0.38081166  0.37646810  0.20040925
   0.88081166  0.37646810  0.20040925
   0.38081166  0.76292810  0.20040925
   0.88081166  0.76292810  0.20040925
   0.13081166  0.06969810  0.25627105
   0.63081166  0.06969810  0.25627105
   0.13077694  0.56976822  0.28921727
   0.63077692  0.56976982  0.28921822
   0.38081473  0.26269586  0.34519905
   0.88081707  0.26269383  0.34519967
   0.38080585  0.87671758  0.34520756
   0.88080623  0.87671764  0.34520759
   0.13078593  0.56977004  0.39985759
   0.63078691  0.56977002  0.39985986
   0.13080998  0.06974034  0.43390544
   0.63081006  0.06974029  0.43390503
   0.38079473  0.37918530  0.49205830
   0.88079464  0.37918687  0.49205811
   0.38087201  0.76015790  0.49205298
   0.88087194  0.76015628  0.49205280
   0.13081113  0.06973630  0.54487852
   0.63081183  0.06973622  0.54487958
   0.13081166  0.06969810  0.05586180
   0.63081166  0.06969810  0.05586180
   0.38081166  0.56969810  0.05586180
   0.88081166  0.56969810  0.05586180
   0.38081166  0.06969810  0.20040925
   0.88081166  0.06969810  0.20040925
   0.13081166  0.56969810  0.20040925
   0.63081166  0.56969810  0.20040925
   0.13078209  0.06972311  0.34515412
   0.63078598  0.06972312  0.34515419
   0.38073929  0.56959869  0.34468389
   0.88073965  0.56959871  0.34468376
   0.38084857  0.06956026  0.48993101
   0.88085960  0.06956028  0.48993095
   0.13082890  0.56966682  0.48555935
   0.63082680  0.56966681  0.48555893
Direct configuration=     6
   0.13081166  0.56969810  0.00000000
   0.63081166  0.56969810  0.00000000
   0.38081166  0.26292810  0.05586180
   0.88081166  0.26292810  0.05586180
   0.38081166  0.87646810  0.05586180
   0.88081166  0.87646810  0.05586180
   0.13081166  0.56969810  0.11172361
   0.63081166  0.56969810  0.11172361
   0.13081166  0.06969810  0.14454744
   0.63081166  0.06969810  0.14454744
   0.38081166  0.37646810  0.20040925
   0.88081166  0.37646810  0.20040925
   0.38081166  0.76292810  0.20040925
   0.88081166  0.76292810  0.20040925
   0.13081166  0.06969810  0.25627105
   0.63081166  0.06969810  0.25627105
   0.13075835  0.56977897  0.28903221
   0.63075857  0.56978063  0.28903289
   0.38079281  0.26265625  0.34527441
   0.88079415  0.26265582  0.34527505
   0.38078167  0.87674739  0.34528637
   0.88078160  0.87674643  0.34528636
   0.13076612  0.56979724  0.39936922
   0.63076667  0.56979717  0.39937033
   0.13082179  0.06974847  0.43383117
   0.63082064  0.06974846  0.43383128
   0.38080088  0.37948774  0.49247498
   0.88080104  0.37948987  0.49247483
   0.38088121  0.75984849  0.49246882
   0.88088141  0.75984633  0.49246867
   0.13081840  0.06973644  0.54476696
   0.63081770  0.06973637  0.54476741
   0.13081166  0.06969810  0.05586180
   0.63081166  0.06969810  0.05586180
   0.38081166  0.56969810  0.05586180
   0.88081166  0.56969810  0.05586180
   0.38081166  0.06969810  0.20040925
   0.88081166  0.06969810  0.20040925
   0.13081166  0.56969810  0.20040925
   0.63081166  0.56969810  0.20040925
   0.13080597  0.06970293  0.34522819
   0.63080539  0.06970377  0.34522877
   0.38074554  0.56962197  0.34437241
   0.88074489  0.56962155  0.34437236
   0.38085376  0.06956400  0.49026915
   0.88085539  0.06956399  0.49026891
   0.13083860  0.56963781  0.48560295
   0.63083706  0.56963781  0.48560329
Direct configuration=     7
   0.13081166  0.56969810  0.00000000
   0.63081166  0.56969810  0.00000000
   0.38081166  0.26292810  0.05586180
   0.88081166  0.26292810  0.05586180
   0.38081166  0.87646810  0.05586180
   0.88081166  0.87646810  0.05586180
   0.13081166  0.56969810  0.11172361
   0.63081166  0.56969810  0.11172361
   0.13081166  0.06969810  0.14454744
   0.63081166  0.06969810  0.14454744
   0.38081166  0.37646810  0.20040925
   0.88081166  0.37646810  0.20040925
   0.38081166  0.76292810  0.20040925
   0.88081166  0.76292810  0.20040925
   0.13081166  0.06969810  0.25627105
   0.63081166  0.06969810  0.25627105
   0.13074620  0.56978599  0.28891128
   0.63074659  0.56978770  0.28891176
   0.38077847  0.26263036  0.34532367
   0.88077918  0.26263098  0.34532431
   0.38076587  0.87676687  0.34533787
   0.88076551  0.87676526  0.34533784
   0.13075317  0.56981501  0.39905006
   0.63075344  0.56981492  0.39905041
   0.13082950  0.06975379  0.43378263
   0.63082755  0.06975380  0.43378309
   0.38080489  0.37968540  0.49274730
   0.88080523  0.37968790  0.49274717
   0.38088723  0.75964627  0.49274058
   0.88088760  0.75964378  0.49274046
   0.13082316  0.06973653  0.54469406
   0.63082155  0.06973647  0.54469410
   0.13081166  0.06969810  0.05586180
   0.63081166  0.06969810  0.05586180
   0.38081166  0.56969810  0.05586180
   0.88081166  0.56969810  0.05586180
   0.38081166  0.06969810  0.20040925
   0.88081166  0.06969810  0.20040925
   0.13081166  0.56969810  0.20040925
   0.63081166  0.56969810  0.20040925
   0.13082157  0.06968974  0.34527660
   0.63081808  0.06969113  0.34527750
   0.38074963  0.56963718  0.34416885
   0.88074832  0.56963647  0.34416885
   0.38085714  0.06956644  0.49049013
   0.88085264  0.06956641  0.49048977
   0.13084494  0.56961886  0.48563144
   0.63084377  0.56961886  0.48563228
Direct configuration=     8
   0.13081166  0.56969810  0.00000000
   0.63081166  0.56969810  0.00000000
   0.38081166  0.26292810  0.05586180
   0.88081166  0.26292810  0.05586180
   0.38081166  0.87646810  0.05586180
   0.88081166  0.87646810  0.05586180
   0.13081166  0.56969810  0.11172361
   0.63081166  0.56969810  0.11172361
   0.13081166  0.06969810  0.14454744
   0.63081166  0.06969810  0.14454744
   0.38081166  0.37646810  0.20040925
   0.88081166  0.37646810  0.20040925
   0.38081166  0.76292810  0.20040925
   0.88081166  0.76292810  0.20040925
   0.13081166  0.06969810  0.25627105
   0.63081166  0.06969810  0.25627105
   0.13074278  0.56979043  0.28858056
   0.63074306  0.56979190  0.28858064
   0.38078502  0.26267452  0.34534169
   0.88078506  0.26267420  0.34534226
   0.38077004  0.87672646  0.34535657
   0.88076944  0.87672613  0.34535654
   0.13074539  0.56983334  0.39920627
   0.63074519  0.56983323  0.39920656
   0.13084278  0.06975829  0.43382530
   0.63084112  0.06975840  0.43382560
   0.38080957  0.37956601  0.49288030
   0.88080964  0.37956670  0.49288022
   0.38086994  0.75975305  0.49287271
   0.88087005  0.75975232  0.49287263
   0.13083305  0.06973274  0.54478281
   0.63083225  0.06973271  0.54478293
   0.13081166  0.06969810  0.05586180
   0.63081166  0.06969810  0.05586180
   0.38081166  0.56969810  0.05586180
   0.88081166  0.56969810  0.05586180
   0.38081166  0.06969810  0.20040925
   0.88081166  0.06969810  0.20040925
   0.13081166  0.56969810  0.20040925
   0.63081166  0.56969810  0.20040925
   0.13079019  0.06968910  0.34533550
   0.63079028  0.06968999  0.34533598
   0.38075454  0.56964198  0.34397745
   0.88075472  0.56964137  0.34397751
   0.38085450  0.06955330  0.49061168
   0.88085689  0.06955396  0.49061156
   0.13086001  0.56962464  0.48566866
   0.63085980  0.56962466  0.48566935
Direct configuration=     9
   0.13081166  0.56969810  0.00000000
   0.63081166  0.56969810  0.00000000
   0.38081166  0.26292810  0.05586180
   0.88081166  0.26292810  0.05586180
   0.38081166  0.87646810  0.05586180
   0.88081166  0.87646810  0.05586180
   0.13081166  0.56969810  0.11172361
   0.63081166  0.56969810  0.11172361
   0.13081166  0.06969810  0.14454744
   0.63081166  0.06969810  0.14454744
   0.38081166  0.37646810  0.20040925
   0.88081166  0.37646810  0.20040925
   0.38081166  0.76292810  0.20040925
   0.88081166  0.76292810  0.20040925
   0.13081166  0.06969810  0.25627105
   0.63081166  0.06969810  0.25627105
   0.13073989  0.56979419  0.28830045
   0.63074008  0.56979546  0.28830019
   0.38079056  0.26271192  0.34535696
   0.88079004  0.26271079  0.34535746
   0.38077358  0.87669224  0.34537240
   0.88077277  0.87669299  0.34537238
   0.13073879  0.56984886  0.39933859
   0.63073820  0.56984874  0.39933882
   0.13085402  0.06976210  0.43386143
   0.63085262  0.06976230  0.43386160
   0.38081353  0.37946489  0.49299295
   0.88081337  0.37946405  0.49299291
   0.38085529  0.75984348  0.49298463
   0.88085518  0.75984426  0.49298458
   0.13084143  0.06972954  0.54485798
   0.63084131  0.06972952  0.54485817
   0.13081166  0.06969810  0.05586180
   0.63081166  0.06969810  0.05586180
   0.38081166  0.56969810  0.05586180
   0.88081166  0.56969810  0.05586180
   0.38081166  0.06969810  0.20040925
   0.88081166  0.06969810  0.20040925
   0.13081166  0.56969810  0.20040925
   0.63081166  0.56969810  0.20040925
   0.13076362  0.06968855  0.34538538
   0.63076673  0.06968902  0.34538551
   0.38075871  0.56964604  0.34381534
   0.88076014  0.56964552  0.34381544
   0.38085226  0.06954217  0.49071463
   0.88086049  0.06954342  0.49071472
   0.13087278  0.56962954  0.48570018
   0.63087338  0.56962957  0.48570075
Direct configuration=    10
   0.13081166  0.56969810  0.00000000
   0.63081166  0.56969810  0.00000000
   0.38081166  0.26292810  0.05586180
   0.88081166  0.26292810  0.05586180
   0.38081166  0.87646810  0.05586180
   0.88081166  0.87646810  0.05586180
   0.13081166  0.56969810  0.11172361
   0.63081166  0.56969810  0.11172361
   0.13081166  0.06969810  0.14454744
   0.63081166  0.06969810  0.14454744
   0.38081166  0.37646810  0.20040925
   0.88081166  0.37646810  0.20040925
   0.38081166  0.76292810  0.20040925
   0.88081166  0.76292810  0.20040925
   0.13081166  0.06969810  0.25627105
   0.63081166  0.06969810  0.25627105
   0.13075062  0.56979322  0.28815218
   0.63075080  0.56979415  0.28815205
   0.38077794  0.26277492  0.34535903
   0.88077763  0.26277475  0.34535942
   0.38075631  0.87663766  0.34537502
   0.88075604  0.87663761  0.34537504
   0.13074630  0.56987240  0.39931732
   0.63074592  0.56987229  0.39931747
   0.13084784  0.06976644  0.43402298
   0.63084786  0.06976669  0.43402330
   0.38083033  0.37939884  0.49313036
   0.88083105  0.37939795  0.49313031
   0.38084725  0.75991410  0.49312336
   0.88084797  0.75991548  0.49312330
   0.13084837  0.06972471  0.54507623
   0.63084864  0.06972472  0.54507596
   0.13081166  0.06969810  0.05586180
   0.63081166  0.06969810  0.05586180
   0.38081166  0.56969810  0.05586180
   0.88081166  0.56969810  0.05586180
   0.38081166  0.06969810  0.20040925
   0.88081166  0.06969810  0.20040925
   0.13081166  0.56969810  0.20040925
   0.63081166  0.56969810  0.20040925
   0.13077728  0.06968952  0.34539886
   0.63077705  0.06968947  0.34539898
   0.38073147  0.56962664  0.34379622
   0.88073081  0.56962644  0.34379633
   0.38087200  0.06953643  0.49068203
   0.88087246  0.06953727  0.49068217
   0.13086467  0.56961935  0.48587268
   0.63086507  0.56961938  0.48587291
Direct configuration=    11
   0.13081166  0.56969810  0.00000000
   0.63081166  0.56969810  0.00000000
   0.38081166  0.26292810  0.05586180
   0.88081166  0.26292810  0.05586180
   0.38081166  0.87646810  0.05586180
   0.88081166  0.87646810  0.05586180
   0.13081166  0.56969810  0.11172361
   0.63081166  0.56969810  0.11172361
   0.13081166  0.06969810  0.14454744
   0.63081166  0.06969810  0.14454744
   0.38081166  0.37646810  0.20040925
   0.88081166  0.37646810  0.20040925
   0.38081166  0.76292810  0.20040925
   0.88081166  0.76292810  0.20040925
   0.13081166  0.06969810  0.25627105
   0.63081166  0.06969810  0.25627105
   0.13075190  0.56979310  0.28813460
   0.63075207  0.56979399  0.28813449
   0.38077645  0.26278239  0.34535927
   0.88077616  0.26278233  0.34535966
   0.38075426  0.87663119  0.34537533
   0.88075405  0.87663104  0.34537535
   0.13074719  0.56987519  0.39931480
   0.63074684  0.56987508  0.39931494
   0.13084711  0.06976696  0.43404213
   0.63084730  0.06976721  0.43404246
   0.38083232  0.37939101  0.49314665
   0.88083314  0.37939012  0.49314660
   0.38084630  0.75992247  0.49313981
   0.88084711  0.75992392  0.49313974
   0.13084919  0.06972413  0.54510210
   0.63084951  0.06972415  0.54510177
   0.13081166  0.06969810  0.05586180
   0.63081166  0.06969810  0.05586180
   0.38081166  0.56969810  0.05586180
   0.88081166  0.56969810  0.05586180
   0.38081166  0.06969810  0.20040925
   0.88081166  0.06969810  0.20040925
   0.13081166  0.56969810  0.20040925
   0.63081166  0.56969810  0.20040925
   0.13077890  0.06968963  0.34540046
   0.63077828  0.06968953  0.34540057
   0.38072824  0.56962435  0.34379395
   0.88072734  0.56962418  0.34379406
   0.38087434  0.06953575  0.49067816
   0.88087388  0.06953654  0.49067832
   0.13086371  0.56961815  0.48589313
   0.63086409  0.56961818  0.48589332
Direct configuration=    12
   0.13081166  0.56969810  0.00000000
   0.63081166  0.56969810  0.00000000
   0.38081166  0.26292810  0.05586180
   0.88081166  0.26292810  0.05586180
   0.38081166  0.87646810  0.05586180
   0.88081166  0.87646810  0.05586180
   0.13081166  0.56969810  0.11172361
   0.63081166  0.56969810  0.11172361
   0.13081166  0.06969810  0.14454744
   0.63081166  0.06969810  0.14454744
   0.38081166  0.37646810  0.20040925
   0.88081166  0.37646810  0.20040925
   0.38081166  0.76292810  0.20040925
   0.88081166  0.76292810  0.20040925
   0.13081166  0.06969810  0.25627105
   0.63081166  0.06969810  0.25627105
   0.13075030  0.56978412  0.28822248
   0.63075045  0.56978472  0.28822252
   0.38076674  0.26279023  0.34536114
   0.88076650  0.26279054  0.34536142
   0.38074101  0.87661689  0.34537717
   0.88074107  0.87661651  0.34537721
   0.13074192  0.56990338  0.39931019
   0.63074187  0.56990330  0.39931029
   0.13085270  0.06977425  0.43412093
   0.63085331  0.06977448  0.43412103
   0.38084827  0.37940892  0.49326558
   0.88084892  0.37940904  0.49326552
   0.38084672  0.75989303  0.49326036
   0.88084734  0.75989376  0.49326028
   0.13085437  0.06972201  0.54523567
   0.63085460  0.06972202  0.54523526
   0.13081166  0.06969810  0.05586180
   0.63081166  0.06969810  0.05586180
   0.38081166  0.56969810  0.05586180
   0.88081166  0.56969810  0.05586180
   0.38081166  0.06969810  0.20040925
   0.88081166  0.06969810  0.20040925
   0.13081166  0.56969810  0.20040925
   0.63081166  0.56969810  0.20040925
   0.13078441  0.06969449  0.34542771
   0.63078327  0.06969423  0.34542781
   0.38071696  0.56960870  0.34381050
   0.88071614  0.56960874  0.34381058
   0.38088488  0.06953584  0.49082566
   0.88088244  0.06953610  0.49082574
   0.13084553  0.56961355  0.48602527
   0.63084554  0.56961356  0.48602529
Direct configuration=    13
   0.13081166  0.56969810  0.00000000
   0.63081166  0.56969810  0.00000000
   0.38081166  0.26292810  0.05586180
   0.88081166  0.26292810  0.05586180
   0.38081166  0.87646810  0.05586180
   0.88081166  0.87646810  0.05586180
   0.13081166  0.56969810  0.11172361
   0.63081166  0.56969810  0.11172361
   0.13081166  0.06969810  0.14454744
   0.63081166  0.06969810  0.14454744
   0.38081166  0.37646810  0.20040925
   0.88081166  0.37646810  0.20040925
   0.38081166  0.76292810  0.20040925
   0.88081166  0.76292810  0.20040925
   0.13081166  0.06969810  0.25627105
   0.63081166  0.06969810  0.25627105
   0.13074653  0.56976285  0.28843045
   0.63074659  0.56976277  0.28843085
   0.38074376  0.26280879  0.34536558
   0.88074366  0.26280997  0.34536560
   0.38070964  0.87658304  0.34538153
   0.88071033  0.87658211  0.34538162
   0.13072944  0.56997009  0.39929929
   0.63073012  0.56997008  0.39929927
   0.13086593  0.06979152  0.43430741
   0.63086753  0.06979169  0.43430696
   0.38088601  0.37945131  0.49354704
   0.88088625  0.37945384  0.49354694
   0.38084772  0.75982335  0.49354566
   0.88084788  0.75982237  0.49354553
   0.13086661  0.06971700  0.54555178
   0.63086665  0.06971698  0.54555116
   0.13081166  0.06969810  0.05586180
   0.63081166  0.06969810  0.05586180
   0.38081166  0.56969810  0.05586180
   0.88081166  0.56969810  0.05586180
   0.38081166  0.06969810  0.20040925
   0.88081166  0.06969810  0.20040925
   0.13081166  0.56969810  0.20040925
   0.63081166  0.56969810  0.20040925
   0.13079744  0.06970598  0.34549220
   0.63079510  0.06970535  0.34549226
   0.38069026  0.56957167  0.34384968
   0.88068965  0.56957222  0.34384968
   0.38090984  0.06953605  0.49117473
   0.88090268  0.06953505  0.49117464
   0.13080253  0.56960267  0.48633799
   0.63080166  0.56960265  0.48633760
Direct configuration=    14
   0.13081166  0.56969810  0.00000000
   0.63081166  0.56969810  0.00000000
   0.38081166  0.26292810  0.05586180
   0.88081166  0.26292810  0.05586180
   0.38081166  0.87646810  0.05586180
   0.88081166  0.87646810  0.05586180
   0.13081166  0.56969810  0.11172361
   0.63081166  0.56969810  0.11172361
   0.13081166  0.06969810  0.14454744
   0.63081166  0.06969810  0.14454744
   0.38081166  0.37646810  0.20040925
   0.88081166  0.37646810  0.20040925
   0.38081166  0.76292810  0.20040925
   0.88081166  0.76292810  0.20040925
   0.13081166  0.06969810  0.25627105
   0.63081166  0.06969810  0.25627105
   0.13073772  0.56975429  0.28845826
   0.63073774  0.56975406  0.28845864
   0.38074435  0.26280104  0.34537063
   0.88074423  0.26280207  0.34537058
   0.38070912  0.87658620  0.34538631
   0.88070982  0.87658555  0.34538640
   0.13072138  0.56999015  0.39935752
   0.63072206  0.56999018  0.39935747
   0.13087247  0.06979605  0.43436142
   0.63087392  0.06979619  0.43436083
   0.38088329  0.37945954  0.49363261
   0.88088318  0.37946205  0.49363252
   0.38084272  0.75980991  0.49363238
   0.88084249  0.75980874  0.49363226
   0.13087327  0.06971555  0.54564052
   0.63087329  0.06971554  0.54564003
   0.13081166  0.06969810  0.05586180
   0.63081166  0.06969810  0.05586180
   0.38081166  0.56969810  0.05586180
   0.88081166  0.56969810  0.05586180
   0.38081166  0.06969810  0.20040925
   0.88081166  0.06969810  0.20040925
   0.13081166  0.56969810  0.20040925
   0.63081166  0.56969810  0.20040925
   0.13078761  0.06970076  0.34552342
   0.63078612  0.06970014  0.34552336
   0.38068960  0.56957164  0.34389530
   0.88068946  0.56957222  0.34389528
   0.38091828  0.06953641  0.49125926
   0.88091275  0.06953537  0.49125914
   0.13081033  0.56959774  0.48636363
   0.63080945  0.56959771  0.48636319
Direct configuration=    15
   0.13081166  0.56969810  0.00000000
   0.63081166  0.56969810  0.00000000
   0.38081166  0.26292810  0.05586180
   0.88081166  0.26292810  0.05586180
   0.38081166  0.87646810  0.05586180
   0.88081166  0.87646810  0.05586180
   0.13081166  0.56969810  0.11172361
   0.63081166  0.56969810  0.11172361
   0.13081166  0.06969810  0.14454744
   0.63081166  0.06969810  0.14454744
   0.38081166  0.37646810  0.20040925
   0.88081166  0.37646810  0.20040925
   0.38081166  0.76292810  0.20040925
   0.88081166  0.76292810  0.20040925
   0.13081166  0.06969810  0.25627105
   0.63081166  0.06969810  0.25627105
   0.13071126  0.56972861  0.28854170
   0.63071120  0.56972795  0.28854202
   0.38074612  0.26277779  0.34538580
   0.88074594  0.26277837  0.34538554
   0.38070754  0.87659570  0.34540064
   0.88070831  0.87659586  0.34540073
   0.13069722  0.57005034  0.39953221
   0.63069787  0.57005046  0.39953207
   0.13089209  0.06980965  0.43452345
   0.63089311  0.06980969  0.43452246
   0.38087515  0.37948422  0.49388933
   0.88087397  0.37948668  0.49388927
   0.38082773  0.75976962  0.49389253
   0.88082634  0.75976786  0.49389244
   0.13089326  0.06971119  0.54590675
   0.63089322  0.06971121  0.54590665
   0.13081166  0.06969810  0.05586180
   0.63081166  0.06969810  0.05586180
   0.38081166  0.56969810  0.05586180
   0.88081166  0.56969810  0.05586180
   0.38081166  0.06969810  0.20040925
   0.88081166  0.06969810  0.20040925
   0.13081166  0.56969810  0.20040925
   0.63081166  0.56969810  0.20040925
   0.13075814  0.06968512  0.34561706
   0.63075920  0.06968452  0.34561668
   0.38068763  0.56957155  0.34403217
   0.88068887  0.56957222  0.34403208
   0.38094359  0.06953747  0.49151282
   0.88094297  0.06953633  0.49151263
   0.13083376  0.56958295  0.48644056
   0.63083283  0.56958291  0.48643997
Direct configuration=    16
   0.13081166  0.56969810  0.00000000
   0.63081166  0.56969810  0.00000000
   0.38081166  0.26292810  0.05586180
   0.88081166  0.26292810  0.05586180
   0.38081166  0.87646810  0.05586180
   0.88081166  0.87646810  0.05586180
   0.13081166  0.56969810  0.11172361
   0.63081166  0.56969810  0.11172361
   0.13081166  0.06969810  0.14454744
   0.63081166  0.06969810  0.14454744
   0.38081166  0.37646810  0.20040925
   0.88081166  0.37646810  0.20040925
   0.38081166  0.76292810  0.20040925
   0.88081166  0.76292810  0.20040925
   0.13081166  0.06969810  0.25627105
   0.63081166  0.06969810  0.25627105
   0.13065836  0.56967725  0.28870858
   0.63065811  0.56967572  0.28870878
   0.38074966  0.26273129  0.34541613
   0.88074937  0.26273097  0.34541545
   0.38070440  0.87661470  0.34542930
   0.88070527  0.87661649  0.34542940
   0.13064891  0.57017071  0.39988159
   0.63064951  0.57017103  0.39988125
   0.13093134  0.06983684  0.43484750
   0.63093149  0.06983669  0.43484570
   0.38085886  0.37953358  0.49440277
   0.88085554  0.37953596  0.49440277
   0.38079773  0.75968903  0.49441283
   0.88079404  0.75968610  0.49441280
   0.13093322  0.06970249  0.54643922
   0.63093308  0.06970255  0.54643988
   0.13081166  0.06969810  0.05586180
   0.63081166  0.06969810  0.05586180
   0.38081166  0.56969810  0.05586180
   0.88081166  0.56969810  0.05586180
   0.38081166  0.06969810  0.20040925
   0.88081166  0.06969810  0.20040925
   0.13081166  0.56969810  0.20040925
   0.63081166  0.56969810  0.20040925
   0.13069918  0.06965383  0.34580434
   0.63070535  0.06965327  0.34580332
   0.38068368  0.56957136  0.34430592
   0.88068771  0.56957221  0.34430568
   0.38099422  0.06953960  0.49201996
   0.88100342  0.06953825  0.49201963
   0.13088060  0.56955337  0.48659442
   0.63087957  0.56955330  0.48659351
Direct configuration=    17
   0.13081166  0.56969810  0.00000000
   0.63081166  0.56969810  0.00000000
   0.38081166  0.26292810  0.05586180
   0.88081166  0.26292810  0.05586180